* EXECUTING CHARMM SCRIPT FROM PYTHON
*  DATE:     2/21/25     13:49:27      CREATED BY USER: pbowling
*
 3673
    1    1 UNK  C0     1.19120   0.76141  -0.01412 LIG  1      0.00000
    2    1 UNK  H0     2.12042   1.30978  -0.00399 LIG  1      0.00000
    3    1 UNK  C1     1.20714  -0.66163  -0.01778 LIG  1      0.00000
    4    1 UNK  H1     2.16502  -1.17157  -0.00116 LIG  1      0.00000
    5    1 UNK  C2    -1.18818  -0.70076  -0.01834 LIG  1      0.00000
    6    1 UNK  H2    -2.09639  -1.24763  -0.00772 LIG  1      0.00000
    7    1 UNK  C3    -1.16911   0.72467  -0.01359 LIG  1      0.00000
    8    1 UNK  H3    -2.14765   1.23349   0.00129 LIG  1      0.00000
    9    1 UNK  C100  -0.01786   1.43596  -0.01446 LIG  1      0.00000
   10    1 UNK  H101  -0.02902   2.52148  -0.00165 LIG  1      0.00000
   11    1 UNK  O103  -0.02608   2.81552  -0.11046 LIG  1      0.00000
   12    1 UNK  H104   0.85706   3.13961   0.08816 LIG  1      0.00000
   13    1 UNK  C102  -0.01609   1.40745   0.01213 LIG  1      0.00000
   14    1 UNK  C105  -0.01736   1.40757  -0.04313 LIG  1      0.00000
   15    1 UNK  C106  -0.03297   2.89971  -0.05064 LIG  1      0.00000
   16    1 UNK  H107  -1.08788   3.24830  -0.04436 LIG  1      0.00000
   17    1 UNK  H108   0.49393   3.26381   0.85608 LIG  1      0.00000
   18    1 UNK  H109   0.48986   3.26012  -0.96202 LIG  1      0.00000
   19    1 UNK  C111  -0.03868   2.89919  -0.03562 LIG  1      0.00000
   20    1 UNK  H113  -1.09888   3.23269  -0.02752 LIG  1      0.00000
   21    1 UNK  H114   0.46723   3.23306   0.89416 LIG  1      0.00000
   22    1 UNK  C112   0.70155   3.40792  -1.27239 LIG  1      0.00000
   23    1 UNK  H115   0.71787   4.51929  -1.28263 LIG  1      0.00000
   24    1 UNK  H116   0.20618   3.05167  -2.20096 LIG  1      0.00000
   25    1 UNK  H117   1.75231   3.04430  -1.26994 LIG  1      0.00000
   26    1 UNK  C110  -0.01801   1.40722  -0.05946 LIG  1      0.00000
   27    1 UNK  C119  -0.05655   2.86010   0.02782 LIG  1      0.00000
   28    1 UNK  H123  -1.11885   3.18532   0.02741 LIG  1      0.00000
   29    1 UNK  H124   0.46848   3.27441   0.91219 LIG  1      0.00000
   30    1 UNK  C118  -0.01997   1.38787   0.12142 LIG  1      0.00000
   31    1 UNK  C122  -0.04356   2.72946  -2.52230 LIG  1      0.00000
   32    1 UNK  H126   0.45206   3.13915  -3.42960 LIG  1      0.00000
   33    1 UNK  H127  -1.10683   3.04737  -2.52739 LIG  1      0.00000
   34    1 UNK  H128  -0.00215   1.62060  -2.56609 LIG  1      0.00000
   35    1 UNK  C120   0.65334   3.25897  -1.26310 LIG  1      0.00000
   36    1 UNK  H125   1.68684   2.84725  -1.23798 LIG  1      0.00000
   37    1 UNK  C121   0.75486   4.77054  -1.29479 LIG  1      0.00000
   38    1 UNK  H129   1.29923   5.11915  -2.19702 LIG  1      0.00000
   39    1 UNK  H130   1.29518   5.12031  -0.38807 LIG  1      0.00000
   40    1 UNK  H131  -0.26209   5.21904  -1.29295 LIG  1      0.00000
   41    1 UNK  C132   0.04035  -1.37540  -0.01954 LIG  1      0.00000
   42    1 UNK  H133   0.05674  -2.45768  -0.00410 LIG  1      0.00000
   43    1 UNK  C134   0.04039  -1.34901  -0.00574 LIG  1      0.00000
   44    1 UNK  O135   0.07633  -2.76170  -0.03035 LIG  1      0.00000
   45    1 UNK  H136   0.99404  -3.02382   0.05055 LIG  1      0.00000
   46    1 UNK  C137   0.03765  -1.34961  -0.00658 LIG  1      0.00000
   47    1 UNK  C138   0.03846  -2.84148  -0.00317 LIG  1      0.00000
   48    1 UNK  H139  -1.01640  -3.19217  -0.00239 LIG  1      0.00000
   49    1 UNK  H140   0.55902  -3.19908  -0.91643 LIG  1      0.00000
   50    1 UNK  H141   0.55867  -3.19487   0.91227 LIG  1      0.00000
   51    1 UNK  C142   0.03802  -1.35041   0.00206 LIG  1      0.00000
   52    1 UNK  C143   0.04272  -2.83465  -0.00820 LIG  1      0.00000
   53    1 UNK  H145  -0.95642  -3.31822   0.00525 LIG  1      0.00000
   54    1 UNK  O144   1.02647  -3.54915  -0.03205 LIG  1      0.00000
   55    1 UNK  C146   0.04947  -1.34139   0.02929 LIG  1      0.00000
   56    1 UNK  C147   0.13832  -2.78997  -0.06024 LIG  1      0.00000
   57    1 UNK  C148  -1.14867  -3.52370  -0.13883 LIG  1      0.00000
   58    1 UNK  H150  -0.93719  -4.61009  -0.22532 LIG  1      0.00000
   59    1 UNK  H151  -1.73943  -3.32530   0.78156 LIG  1      0.00000
   60    1 UNK  H152  -1.72785  -3.18612  -1.02398 LIG  1      0.00000
   61    1 UNK  O149   1.22141  -3.37409  -0.06843 LIG  1      0.00000
   62    1 UNK  C153   0.03813  -1.34748  -0.08174 LIG  1      0.00000
   63    1 UNK  C157   0.80595  -4.88843   0.84025 LIG  1      0.00000
   64    1 UNK  H162   1.20102  -5.39250   1.71027 LIG  1      0.00000
   65    1 UNK  C156  -0.75903  -3.53527  -0.96177 LIG  1      0.00000
   66    1 UNK  H161  -1.53212  -3.01345  -1.50844 LIG  1      0.00000
   67    1 UNK  C155   0.87514  -3.51935   0.76347 LIG  1      0.00000
   68    1 UNK  H160   1.66911  -2.98927   1.26443 LIG  1      0.00000
   69    1 UNK  C154   0.05056  -2.83973  -0.09658 LIG  1      0.00000
   70    1 UNK  C159   0.06538  -5.58662  -0.08461 LIG  1      0.00000
   71    1 UNK  H164  -0.03492  -6.65898   0.00566 LIG  1      0.00000
   72    1 UNK  C158  -0.68790  -4.90851  -1.01538 LIG  1      0.00000
   73    1 UNK  H163  -1.45029  -5.44583  -1.56163 LIG  1      0.00000
   74    2 TIP3 OH2  -13.92858 -13.02973 -13.38320 WT00 2      0.00000
   75    2 TIP3 H1   -13.98908 -13.64832 -14.12954 WT00 2      0.00000
   76    2 TIP3 H2   -14.34676 -12.22625 -13.75679 WT00 2      0.00000
   77    3 TIP3 OH2  -14.39507 -10.23396 -11.47625 WT00 3      0.00000
   78    3 TIP3 H1   -13.97901  -9.53935 -12.03214 WT00 3      0.00000
   79    3 TIP3 H2   -15.26678 -10.35314 -11.87090 WT00 3      0.00000
   80    4 TIP3 OH2  -11.60845 -12.74783 -11.93838 WT00 4      0.00000
   81    4 TIP3 H1   -11.39461 -11.80803 -12.08936 WT00 4      0.00000
   82    4 TIP3 H2   -12.47664 -12.83132 -12.38710 WT00 4      0.00000
   83    5 TIP3 OH2  -14.64394 -10.97382 -14.92705 WT00 5      0.00000
   84    5 TIP3 H1   -14.29067 -10.08277 -15.05250 WT00 5      0.00000
   85    5 TIP3 H2   -14.86679 -11.25948 -15.82691 WT00 5      0.00000
   86    6 TIP3 OH2  -14.29035 -15.47062 -12.14006 WT00 6      0.00000
   87    6 TIP3 H1   -13.35816 -15.53718 -12.43810 WT00 6      0.00000
   88    6 TIP3 H2   -14.32101 -14.51026 -11.95172 WT00 6      0.00000
   89    7 TIP3 OH2   -9.70596 -14.12004 -10.59800 WT00 7      0.00000
   90    7 TIP3 H1    -9.16305 -14.06666 -11.39920 WT00 7      0.00000
   91    7 TIP3 H2   -10.56688 -13.83402 -10.97946 WT00 7      0.00000
   92    8 TIP3 OH2   -9.76964 -14.10387 -14.33891 WT00 8      0.00000
   93    8 TIP3 H1    -9.65808 -13.39271 -13.68997 WT00 8      0.00000
   94    8 TIP3 H2   -10.48462 -14.63716 -13.94064 WT00 8      0.00000
   95    9 TIP3 OH2  -11.84302 -15.78028 -13.42221 WT00 9      0.00000
   96    9 TIP3 H1   -11.57322 -16.71259 -13.42520 WT00 9      0.00000
   97    9 TIP3 H2   -12.37057 -15.67927 -14.24320 WT00 9      0.00000
   98   10 TIP3 OH2  -13.60086 -15.15309 -15.47225 WT00 10     0.00000
   99   10 TIP3 H1   -14.51735 -15.47821 -15.40333 WT00 10     0.00000
  100   10 TIP3 H2   -13.50923 -15.08466 -16.43172 WT00 10     0.00000
  101   11 TIP3 OH2  -16.09325 -15.89975 -14.33654 WT00 11     0.00000
  102   11 TIP3 H1   -15.59141 -15.62866 -13.54842 WT00 11     0.00000
  103   11 TIP3 H2   -15.71928 -16.78990 -14.48674 WT00 11     0.00000
  104   12 TIP3 OH2  -14.57194 -13.13249 -10.10138 WT00 12     0.00000
  105   12 TIP3 H1   -13.78073 -12.87809  -9.59288 WT00 12     0.00000
  106   12 TIP3 H2   -14.80347 -12.30487 -10.55036 WT00 12     0.00000
  107   13 TIP3 OH2  -10.33961 -10.38997 -12.70278 WT00 13     0.00000
  108   13 TIP3 H1   -10.78024 -10.33451 -13.57355 WT00 13     0.00000
  109   13 TIP3 H2    -9.94438  -9.49395 -12.64009 WT00 13     0.00000
  110   14 TIP3 OH2  -11.55814 -10.84121 -15.19790 WT00 14     0.00000
  111   14 TIP3 H1   -10.92503 -11.49195 -15.53962 WT00 14     0.00000
  112   14 TIP3 H2   -12.34843 -11.37644 -15.04681 WT00 14     0.00000
  113   15 TIP3 OH2  -14.01102 -12.97892   5.22131 WT00 15     0.00000
  114   15 TIP3 H1   -13.92728 -13.55126   4.44101 WT00 15     0.00000
  115   15 TIP3 H2   -14.34534 -12.15079   4.82580 WT00 15     0.00000
  116   16 TIP3 OH2  -12.86461 -15.64914  -8.14599 WT00 16     0.00000
  117   16 TIP3 H1   -13.06938 -15.96959  -9.03423 WT00 16     0.00000
  118   16 TIP3 H2   -13.49711 -16.14692  -7.59150 WT00 16     0.00000
  119   17 TIP3 OH2  -14.40795 -10.21237   7.17721 WT00 17     0.00000
  120   17 TIP3 H1   -13.95755  -9.52953   6.62998 WT00 17     0.00000
  121   17 TIP3 H2   -15.25464 -10.33071   6.73309 WT00 17     0.00000
  122   18 TIP3 OH2  -11.65064 -12.75971   6.71159 WT00 18     0.00000
  123   18 TIP3 H1   -11.39719 -11.82990   6.55539 WT00 18     0.00000
  124   18 TIP3 H2   -12.50391 -12.80665   6.23429 WT00 18     0.00000
  125   19 TIP3 OH2  -10.15799 -16.08078  -7.68539 WT00 19     0.00000
  126   19 TIP3 H1   -11.11678 -15.94088  -7.54854 WT00 19     0.00000
  127   19 TIP3 H2    -9.96975 -15.38256  -8.32915 WT00 19     0.00000
  128   20 TIP3 OH2  -13.24574 -15.49751   0.34098 WT00 20     0.00000
  129   20 TIP3 H1   -12.49378 -15.28126  -0.26107 WT00 20     0.00000
  130   20 TIP3 H2   -13.19018 -16.46654   0.33865 WT00 20     0.00000
  131   21 TIP3 OH2  -14.23248 -12.01491  -6.35587 WT00 21     0.00000
  132   21 TIP3 H1   -14.06045 -11.86197  -5.40539 WT00 21     0.00000
  133   21 TIP3 H2   -14.81242 -11.26611  -6.57519 WT00 21     0.00000
  134   22 TIP3 OH2  -12.47089 -12.89097  -8.26803 WT00 22     0.00000
  135   22 TIP3 H1   -12.51529 -13.86039  -8.13716 WT00 22     0.00000
  136   22 TIP3 H2   -12.99919 -12.57591  -7.50245 WT00 22     0.00000
  137   23 TIP3 OH2  -11.25422 -13.86426  -5.18424 WT00 23     0.00000
  138   23 TIP3 H1   -11.52879 -14.77602  -5.05265 WT00 23     0.00000
  139   23 TIP3 H2   -10.45449 -13.82081  -4.62862 WT00 23     0.00000
  140   24 TIP3 OH2  -14.66220 -10.92707   3.46937 WT00 24     0.00000
  141   24 TIP3 H1   -14.48853 -10.07034   3.04766 WT00 24     0.00000
  142   24 TIP3 H2   -14.93706 -11.47415   2.70310 WT00 24     0.00000
  143   25 TIP3 OH2  -14.07565  -9.71600  -8.82117 WT00 25     0.00000
  144   25 TIP3 H1   -14.99630  -9.86626  -8.55502 WT00 25     0.00000
  145   25 TIP3 H2   -14.10595  -9.91214  -9.78598 WT00 25     0.00000
  146   26 TIP3 OH2  -14.28033 -15.45217   6.48908 WT00 26     0.00000
  147   26 TIP3 H1   -13.33876 -15.50734   6.22641 WT00 26     0.00000
  148   26 TIP3 H2   -14.34139 -14.48539   6.62963 WT00 26     0.00000
  149   27 TIP3 OH2   -9.72310 -14.12353   8.04383 WT00 27     0.00000
  150   27 TIP3 H1    -9.18276 -14.01438   7.24704 WT00 27     0.00000
  151   27 TIP3 H2   -10.59107 -13.84054   7.67685 WT00 27     0.00000
  152   28 TIP3 OH2  -15.24928  -9.63221  -3.10169 WT00 28     0.00000
  153   28 TIP3 H1   -14.65611 -10.38728  -3.30891 WT00 28     0.00000
  154   28 TIP3 H2   -14.88097  -9.32000  -2.26790 WT00 28     0.00000
  155   29 TIP3 OH2  -10.05787 -10.51845  -4.52109 WT00 29     0.00000
  156   29 TIP3 H1   -10.78475  -9.87684  -4.42967 WT00 29     0.00000
  157   29 TIP3 H2   -10.35230 -11.04230  -5.27928 WT00 29     0.00000
  158   30 TIP3 OH2  -15.54305 -12.77555   1.57216 WT00 30     0.00000
  159   30 TIP3 H1   -15.33554 -12.94556   0.63072 WT00 30     0.00000
  160   30 TIP3 H2   -15.71462 -13.67081   1.89182 WT00 30     0.00000
  161   31 TIP3 OH2  -14.54679 -13.42949  -1.03377 WT00 31     0.00000
  162   31 TIP3 H1   -14.17518 -14.29725  -0.78799 WT00 31     0.00000
  163   31 TIP3 H2   -15.13531 -13.68074  -1.78386 WT00 31     0.00000
  164   32 TIP3 OH2   -9.79839 -14.09195   4.19562 WT00 32     0.00000
  165   32 TIP3 H1    -9.69904 -13.37283   4.84246 WT00 32     0.00000
  166   32 TIP3 H2   -10.45529 -14.65920   4.65326 WT00 32     0.00000
  167   33 TIP3 OH2  -10.34289 -11.44049  -9.07096 WT00 33     0.00000
  168   33 TIP3 H1   -11.14957 -11.93197  -8.78447 WT00 33     0.00000
  169   33 TIP3 H2   -10.05216 -12.04102  -9.77228 WT00 33     0.00000
  170   34 TIP3 OH2  -12.67297 -11.87095   0.25002 WT00 34     0.00000
  171   34 TIP3 H1   -12.06118 -12.45222   0.75535 WT00 34     0.00000
  172   34 TIP3 H2   -13.28983 -12.51399  -0.15728 WT00 34     0.00000
  173   35 TIP3 OH2  -11.78048  -9.53965  -7.40943 WT00 35     0.00000
  174   35 TIP3 H1   -11.15174 -10.05355  -7.94840 WT00 35     0.00000
  175   35 TIP3 H2   -12.62387  -9.78065  -7.85766 WT00 35     0.00000
  176   36 TIP3 OH2  -11.80836 -15.76588   5.22577 WT00 36     0.00000
  177   36 TIP3 H1   -11.60773 -16.71503   5.26173 WT00 36     0.00000
  178   36 TIP3 H2   -12.36304 -15.65892   4.42404 WT00 36     0.00000
  179   37 TIP3 OH2  -13.61929 -11.80085  -3.61425 WT00 37     0.00000
  180   37 TIP3 H1   -13.96141 -12.52980  -3.07084 WT00 37     0.00000
  181   37 TIP3 H2   -12.67172 -11.99948  -3.62827 WT00 37     0.00000
  182   38 TIP3 OH2  -13.54953 -15.12844   3.15465 WT00 38     0.00000
  183   38 TIP3 H1   -14.37737 -15.63382   3.18425 WT00 38     0.00000
  184   38 TIP3 H2   -13.35838 -15.10849   2.19507 WT00 38     0.00000
  185   39 TIP3 OH2  -16.11962 -15.91850   4.25429 WT00 39     0.00000
  186   39 TIP3 H1   -15.63260 -15.58743   5.02918 WT00 39     0.00000
  187   39 TIP3 H2   -15.71731 -16.80638   4.16549 WT00 39     0.00000
  188   40 TIP3 OH2  -15.91669 -14.21397  -3.24456 WT00 40     0.00000
  189   40 TIP3 H1   -16.34475 -15.01065  -3.59758 WT00 40     0.00000
  190   40 TIP3 H2   -16.62015 -13.56194  -3.40354 WT00 40     0.00000
  191   41 TIP3 OH2  -10.65774 -13.08250   1.70641 WT00 41     0.00000
  192   41 TIP3 H1   -10.29391 -13.53980   2.49095 WT00 41     0.00000
  193   41 TIP3 H2    -9.95211 -13.22884   1.04096 WT00 41     0.00000
  194   42 TIP3 OH2  -16.33931  -9.95237   0.02510 WT00 42     0.00000
  195   42 TIP3 H1   -16.43235  -9.35023  -0.72383 WT00 42     0.00000
  196   42 TIP3 H2   -16.51631 -10.80605  -0.42864 WT00 42     0.00000
  197   43 TIP3 OH2  -15.59819 -14.51534  -6.46956 WT00 43     0.00000
  198   43 TIP3 H1   -14.75044 -14.06646  -6.30236 WT00 43     0.00000
  199   43 TIP3 H2   -15.91502 -14.01690  -7.23207 WT00 43     0.00000
  200   44 TIP3 OH2  -11.33086 -15.18770  -1.58043 WT00 44     0.00000
  201   44 TIP3 H1   -10.79831 -14.57787  -2.12299 WT00 44     0.00000
  202   44 TIP3 H2   -10.74818 -15.95698  -1.58620 WT00 44     0.00000
  203   45 TIP3 OH2  -14.58697 -13.13333   8.59713 WT00 45     0.00000
  204   45 TIP3 H1   -13.78309 -12.84825   9.06605 WT00 45     0.00000
  205   45 TIP3 H2   -14.84830 -12.32593   8.12580 WT00 45     0.00000
  206   46 TIP3 OH2  -10.29961 -10.42022   6.02317 WT00 46     0.00000
  207   46 TIP3 H1   -10.75234 -10.47848   5.14998 WT00 46     0.00000
  208   46 TIP3 H2    -9.98594  -9.49194   6.01455 WT00 46     0.00000
  209   47 TIP3 OH2  -11.27811 -10.13555  -1.32554 WT00 47     0.00000
  210   47 TIP3 H1   -10.60520  -9.92087  -0.64550 WT00 47     0.00000
  211   47 TIP3 H2   -11.76273 -10.85017  -0.86369 WT00 47     0.00000
  212   48 TIP3 OH2  -11.47637 -11.09560   3.65644 WT00 48     0.00000
  213   48 TIP3 H1   -11.14976 -11.63241   2.91208 WT00 48     0.00000
  214   48 TIP3 H2   -12.43238 -11.11843   3.52295 WT00 48     0.00000
  215   49 TIP3 OH2  -13.77531  -9.47006   0.93876 WT00 49     0.00000
  216   49 TIP3 H1   -14.67588  -9.58751   0.57836 WT00 49     0.00000
  217   49 TIP3 H2   -13.33742 -10.29517   0.63614 WT00 49     0.00000
  218   50 TIP3 OH2  -12.85206 -15.66314  10.50600 WT00 50     0.00000
  219   50 TIP3 H1   -13.03825 -15.93695   9.59793 WT00 50     0.00000
  220   50 TIP3 H2   -13.58255 -16.07120  11.00008 WT00 50     0.00000
  221   51 TIP3 OH2  -10.15709 -16.06996  10.97919 WT00 51     0.00000
  222   51 TIP3 H1   -11.12430 -15.95870  11.08180 WT00 51     0.00000
  223   51 TIP3 H2    -9.96555 -15.37160  10.33665 WT00 51     0.00000
  224   52 TIP3 OH2  -14.25257 -11.99704  12.30365 WT00 52     0.00000
  225   52 TIP3 H1   -14.16016 -11.78673  13.24635 WT00 52     0.00000
  226   52 TIP3 H2   -14.82851 -11.27268  11.99902 WT00 52     0.00000
  227   53 TIP3 OH2  -12.45777 -12.89699  10.41372 WT00 53     0.00000
  228   53 TIP3 H1   -12.51757 -13.86530  10.53548 WT00 53     0.00000
  229   53 TIP3 H2   -12.98994 -12.57558  11.17279 WT00 53     0.00000
  230   54 TIP3 OH2  -11.40001 -13.82887  13.58992 WT00 54     0.00000
  231   54 TIP3 H1   -11.51043 -14.78039  13.51159 WT00 54     0.00000
  232   54 TIP3 H2   -10.57209 -13.80193  14.11768 WT00 54     0.00000
  233   55 TIP3 OH2  -14.05805  -9.74548   9.83452 WT00 55     0.00000
  234   55 TIP3 H1   -14.99141  -9.84182  10.07252 WT00 55     0.00000
  235   55 TIP3 H2   -14.08311  -9.91045   8.86263 WT00 55     0.00000
  236   56 TIP3 OH2  -15.40134  -9.71215  15.52420 WT00 56     0.00000
  237   56 TIP3 H1   -14.72279 -10.37125  15.26907 WT00 56     0.00000
  238   56 TIP3 H2   -14.94635  -9.15345  16.16637 WT00 56     0.00000
  239   57 TIP3 OH2  -10.29536 -10.48747  14.13974 WT00 57     0.00000
  240   57 TIP3 H1   -10.90337  -9.73115  14.02532 WT00 57     0.00000
  241   57 TIP3 H2   -10.45507 -11.00361  13.33782 WT00 57     0.00000
  242   58 TIP3 OH2  -10.34344 -11.43593   9.59733 WT00 58     0.00000
  243   58 TIP3 H1   -11.14829 -11.93105   9.88155 WT00 58     0.00000
  244   58 TIP3 H2   -10.06028 -12.01902   8.87965 WT00 58     0.00000
  245   59 TIP3 OH2  -11.78175  -9.56325  11.27349 WT00 59     0.00000
  246   59 TIP3 H1   -11.14715 -10.04988  10.71592 WT00 59     0.00000
  247   59 TIP3 H2   -12.61971  -9.78881  10.80690 WT00 59     0.00000
  248   60 TIP3 OH2  -13.67766 -11.89983  15.15727 WT00 60     0.00000
  249   60 TIP3 H1   -14.05509 -12.79853  15.20355 WT00 60     0.00000
  250   60 TIP3 H2   -12.75600 -12.09299  14.91182 WT00 60     0.00000
  251   61 TIP3 OH2  -15.49775 -14.39562  15.27827 WT00 61     0.00000
  252   61 TIP3 H1   -15.95798 -15.14233  14.86788 WT00 61     0.00000
  253   61 TIP3 H2   -16.24112 -13.98570  15.75590 WT00 61     0.00000
  254   62 TIP3 OH2  -15.58920 -14.52436  12.09517 WT00 62     0.00000
  255   62 TIP3 H1   -14.76771 -14.03725  12.28373 WT00 62     0.00000
  256   62 TIP3 H2   -15.96776 -13.96833  11.40291 WT00 62     0.00000
  257   63 TIP3 OH2  -14.01069   5.50548 -13.26001 WT00 63     0.00000
  258   63 TIP3 H1   -13.92223   4.96886 -14.07087 WT00 63     0.00000
  259   63 TIP3 H2   -14.36270   6.33795 -13.63356 WT00 63     0.00000
  260   64 TIP3 OH2  -13.01390  -8.14440 -12.76179 WT00 64     0.00000
  261   64 TIP3 H1   -12.25245  -7.83989 -13.28807 WT00 64     0.00000
  262   64 TIP3 H2   -13.04512  -7.44191 -12.08747 WT00 64     0.00000
  263   65 TIP3 OH2  -14.37035   8.40658 -11.48479 WT00 65     0.00000
  264   65 TIP3 H1   -13.98054   9.11947 -12.03610 WT00 65     0.00000
  265   65 TIP3 H2   -15.26589   8.30848 -11.83087 WT00 65     0.00000
  266   66 TIP3 OH2  -11.59662   5.87317 -11.97031 WT00 66     0.00000
  267   66 TIP3 H1   -11.41834   6.82253 -12.10619 WT00 66     0.00000
  268   66 TIP3 H2   -12.50208   5.78411 -12.33553 WT00 66     0.00000
  269   67 TIP3 OH2  -13.75814  -0.90300  -9.57287 WT00 67     0.00000
  270   67 TIP3 H1   -14.43750  -1.58390  -9.40717 WT00 67     0.00000
  271   67 TIP3 H2   -13.85536  -0.76687 -10.52630 WT00 67     0.00000
  272   68 TIP3 OH2  -14.51876   7.60319 -14.89976 WT00 68     0.00000
  273   68 TIP3 H1   -14.35910   8.55255 -14.99328 WT00 68     0.00000
  274   68 TIP3 H2   -14.92802   7.35761 -15.74349 WT00 68     0.00000
  275   69 TIP3 OH2  -14.27792   3.03608 -11.92304 WT00 69     0.00000
  276   69 TIP3 H1   -13.39835   2.83397 -12.29908 WT00 69     0.00000
  277   69 TIP3 H2   -14.23368   4.01410 -11.89057 WT00 69     0.00000
  278   70 TIP3 OH2  -11.99310  -4.28733 -15.46613 WT00 70     0.00000
  279   70 TIP3 H1   -12.87580  -4.11165 -15.06281 WT00 70     0.00000
  280   70 TIP3 H2   -11.43170  -3.66045 -14.99224 WT00 70     0.00000
  281   71 TIP3 OH2   -9.60594   4.49178 -10.73599 WT00 71     0.00000
  282   71 TIP3 H1    -9.09568   4.83306 -11.49220 WT00 71     0.00000
  283   71 TIP3 H2   -10.50862   4.74107 -11.03157 WT00 71     0.00000
  284   72 TIP3 OH2  -11.49267   0.31018 -14.47586 WT00 72     0.00000
  285   72 TIP3 H1   -12.00976   0.05046 -15.25972 WT00 72     0.00000
  286   72 TIP3 H2   -10.67685   0.66834 -14.90229 WT00 72     0.00000
  287   73 TIP3 OH2  -16.08601   2.03108 -10.21339 WT00 73     0.00000
  288   73 TIP3 H1   -15.31155   2.28716 -10.76530 WT00 73     0.00000
  289   73 TIP3 H2   -16.41506   2.89822  -9.97032 WT00 73     0.00000
  290   74 TIP3 OH2  -11.34591   1.90303 -10.35042 WT00 74     0.00000
  291   74 TIP3 H1   -10.45231   1.54945 -10.51240 WT00 74     0.00000
  292   74 TIP3 H2   -11.59905   2.16068 -11.25127 WT00 74     0.00000
  293   75 TIP3 OH2  -14.99556  -2.89567 -11.96826 WT00 75     0.00000
  294   75 TIP3 H1   -15.81000  -2.36524 -12.03928 WT00 75     0.00000
  295   75 TIP3 H2   -15.15564  -3.35293 -11.13395 WT00 75     0.00000
  296   76 TIP3 OH2  -13.34825  -0.75433 -16.46427 WT00 76     0.00000
  297   76 TIP3 H1   -13.90785  -0.02620 -16.80531 WT00 76     0.00000
  298   76 TIP3 H2   -12.54983  -0.63776 -17.00470 WT00 76     0.00000
  299   77 TIP3 OH2  -10.38207  -0.77053 -12.19014 WT00 77     0.00000
  300   77 TIP3 H1    -9.49537  -0.50616 -12.48732 WT00 77     0.00000
  301   77 TIP3 H2   -10.92071  -0.50887 -12.96605 WT00 77     0.00000
  302   78 TIP3 OH2  -14.39317  -6.43582 -15.70758 WT00 78     0.00000
  303   78 TIP3 H1   -13.59478  -6.99886 -15.72682 WT00 78     0.00000
  304   78 TIP3 H2   -14.95552  -6.93986 -15.09210 WT00 78     0.00000
  305   79 TIP3 OH2  -14.46566  -3.71373 -14.58960 WT00 79     0.00000
  306   79 TIP3 H1   -14.77961  -3.47411 -13.69957 WT00 79     0.00000
  307   79 TIP3 H2   -15.00557  -4.50383 -14.77633 WT00 79     0.00000
  308   80 TIP3 OH2  -11.07056  -6.66907 -14.25596 WT00 80     0.00000
  309   80 TIP3 H1   -11.28060  -5.72194 -14.35519 WT00 80     0.00000
  310   80 TIP3 H2   -11.21940  -6.95677 -15.16879 WT00 80     0.00000
  311   81 TIP3 OH2   -9.73205   4.56467 -14.37519 WT00 81     0.00000
  312   81 TIP3 H1    -9.67050   5.27603 -13.72022 WT00 81     0.00000
  313   81 TIP3 H2   -10.37530   3.96507 -13.96828 WT00 81     0.00000
  314   82 TIP3 OH2  -11.90109   2.70869 -13.25736 WT00 82     0.00000
  315   82 TIP3 H1   -11.71153   1.82380 -13.64225 WT00 82     0.00000
  316   82 TIP3 H2   -12.33263   3.14307 -14.02252 WT00 82     0.00000
  317   83 TIP3 OH2  -13.43467   3.75565 -15.36496 WT00 83     0.00000
  318   83 TIP3 H1   -14.31170   3.34872 -15.18294 WT00 83     0.00000
  319   83 TIP3 H2   -13.22895   3.34197 -16.21566 WT00 83     0.00000
  320   84 TIP3 OH2  -16.10242   0.29763 -12.29754 WT00 84     0.00000
  321   84 TIP3 H1   -16.21357   0.84986 -11.49572 WT00 84     0.00000
  322   84 TIP3 H2   -16.88632  -0.27626 -12.24724 WT00 84     0.00000
  323   85 TIP3 OH2  -15.82152  -8.36480 -14.41289 WT00 85     0.00000
  324   85 TIP3 H1   -16.13232  -7.74526 -13.73364 WT00 85     0.00000
  325   85 TIP3 H2   -15.91673  -9.20628 -13.93432 WT00 85     0.00000
  326   86 TIP3 OH2  -15.53004  -0.30386 -14.85699 WT00 86     0.00000
  327   86 TIP3 H1   -15.37252  -0.23053 -13.89364 WT00 86     0.00000
  328   86 TIP3 H2   -14.72117  -0.75321 -15.17669 WT00 86     0.00000
  329   87 TIP3 OH2  -15.67328   2.62066 -14.25985 WT00 87     0.00000
  330   87 TIP3 H1   -15.31051   2.76537 -13.36322 WT00 87     0.00000
  331   87 TIP3 H2   -16.19547   1.81506 -14.11132 WT00 87     0.00000
  332   88 TIP3 OH2  -12.30994  -4.19918 -12.31236 WT00 88     0.00000
  333   88 TIP3 H1   -13.02116  -3.54393 -12.37764 WT00 88     0.00000
  334   88 TIP3 H2   -12.73281  -4.87690 -11.74367 WT00 88     0.00000
  335   89 TIP3 OH2  -14.61989   5.51866 -10.05747 WT00 89     0.00000
  336   89 TIP3 H1   -13.81156   5.77052  -9.57713 WT00 89     0.00000
  337   89 TIP3 H2   -14.83237   6.32904 -10.54563 WT00 89     0.00000
  338   90 TIP3 OH2  -13.26968  -6.15484 -10.68834 WT00 90     0.00000
  339   90 TIP3 H1   -12.99620  -6.31539  -9.76396 WT00 90     0.00000
  340   90 TIP3 H2   -14.17911  -6.53629 -10.65355 WT00 90     0.00000
  341   91 TIP3 OH2  -10.34896   8.26661 -12.70072 WT00 91     0.00000
  342   91 TIP3 H1   -10.79253   8.31625 -13.57120 WT00 91     0.00000
  343   91 TIP3 H2    -9.94335   9.15911 -12.65190 WT00 91     0.00000
  344   92 TIP3 OH2  -11.54417   7.82778 -15.19964 WT00 92     0.00000
  345   92 TIP3 H1   -10.94437   7.14419 -15.53610 WT00 92     0.00000
  346   92 TIP3 H2   -12.37614   7.34482 -15.07771 WT00 92     0.00000
  347   93 TIP3 OH2  -10.14588  -5.75516 -11.23404 WT00 93     0.00000
  348   93 TIP3 H1   -10.42691  -5.21304 -10.47663 WT00 93     0.00000
  349   93 TIP3 H2   -10.72246  -5.37107 -11.92301 WT00 93     0.00000
  350   94 TIP3 OH2  -15.65586  -7.29140 -10.42487 WT00 94     0.00000
  351   94 TIP3 H1   -15.94375  -7.82680  -9.67766 WT00 94     0.00000
  352   94 TIP3 H2   -16.53429  -7.08997 -10.80574 WT00 94     0.00000
  353   95 TIP3 OH2  -10.84759  -1.23532  -9.51509 WT00 95     0.00000
  354   95 TIP3 H1   -11.79816  -1.02275  -9.46150 WT00 95     0.00000
  355   95 TIP3 H2   -10.68507  -1.09147 -10.47665 WT00 95     0.00000
  356   96 TIP3 OH2  -16.62881  -6.54950   1.31444 WT00 96     0.00000
  357   96 TIP3 H1   -15.94958  -6.30656   1.98115 WT00 96     0.00000
  358   96 TIP3 H2   -16.07850  -6.64181   0.51768 WT00 96     0.00000
  359   97 TIP3 OH2  -14.00432   5.54370   5.30636 WT00 97     0.00000
  360   97 TIP3 H1   -13.94771   4.98655   4.50936 WT00 97     0.00000
  361   97 TIP3 H2   -14.37262   6.36864   4.94530 WT00 97     0.00000
  362   98 TIP3 OH2  -12.41400  -1.18498  -5.19658 WT00 98     0.00000
  363   98 TIP3 H1   -12.80143  -0.31007  -5.34726 WT00 98     0.00000
  364   98 TIP3 H2   -13.13192  -1.77458  -5.52331 WT00 98     0.00000
  365   99 TIP3 OH2  -14.67651  -1.38846  -0.03964 WT00 99     0.00000
  366   99 TIP3 H1   -15.60091  -1.18797  -0.30002 WT00 99     0.00000
  367   99 TIP3 H2   -14.22099  -0.56696  -0.30177 WT00 99     0.00000
  368  100 TIP3 OH2   -9.72318  -1.68708  -5.60029 WT00 100    0.00000
  369  100 TIP3 H1   -10.69431  -1.55230  -5.54891 WT00 100    0.00000
  370  100 TIP3 H2    -9.48406  -1.15773  -6.39071 WT00 100    0.00000
  371  101 TIP3 OH2  -12.92330  -8.17276   5.97571 WT00 101    0.00000
  372  101 TIP3 H1   -12.22216  -7.87737   5.37539 WT00 101    0.00000
  373  101 TIP3 H2   -12.97129  -7.41890   6.58943 WT00 101    0.00000
  374  102 TIP3 OH2  -12.79541   3.05545  -8.23553 WT00 102    0.00000
  375  102 TIP3 H1   -12.45608   2.67374  -9.07236 WT00 102    0.00000
  376  102 TIP3 H2   -13.43797   2.37283  -7.97015 WT00 102    0.00000
  377  103 TIP3 OH2  -14.38867   8.42800   7.17314 WT00 103    0.00000
  378  103 TIP3 H1   -13.97299   9.12353   6.61609 WT00 103    0.00000
  379  103 TIP3 H2   -15.26082   8.31021   6.77770 WT00 103    0.00000
  380  104 TIP3 OH2  -13.05131  -4.52886   0.28260 WT00 104    0.00000
  381  104 TIP3 H1   -12.93871  -4.15673   1.17199 WT00 104    0.00000
  382  104 TIP3 H2   -12.49282  -5.32012   0.32904 WT00 104    0.00000
  383  105 TIP3 OH2  -11.61538   5.86846   6.70826 WT00 105    0.00000
  384  105 TIP3 H1   -11.41997   6.81088   6.54885 WT00 105    0.00000
  385  105 TIP3 H2   -12.48834   5.77743   6.27273 WT00 105    0.00000
  386  106 TIP3 OH2  -10.03687   2.35308  -7.73084 WT00 106    0.00000
  387  106 TIP3 H1   -10.93642   2.58102  -7.43787 WT00 106    0.00000
  388  106 TIP3 H2   -10.15738   2.45404  -8.69092 WT00 106    0.00000
  389  107 TIP3 OH2  -10.77044   1.29342  -2.99721 WT00 107    0.00000
  390  107 TIP3 H1   -11.26458   1.22108  -3.83300 WT00 107    0.00000
  391  107 TIP3 H2   -10.06032   0.62891  -3.10913 WT00 107    0.00000
  392  108 TIP3 OH2   -9.94261  -3.84007  -9.07818 WT00 108    0.00000
  393  108 TIP3 H1   -10.32355  -2.93853  -9.07838 WT00 108    0.00000
  394  108 TIP3 H2    -9.25026  -3.70756  -9.76121 WT00 108    0.00000
  395  109 TIP3 OH2  -13.25103   3.22414   0.35233 WT00 109    0.00000
  396  109 TIP3 H1   -12.45678   3.42490  -0.19240 WT00 109    0.00000
  397  109 TIP3 H2   -13.25929   2.25126   0.22606 WT00 109    0.00000
  398  110 TIP3 OH2  -16.12487  -2.49204  -9.08051 WT00 110    0.00000
  399  110 TIP3 H1   -16.70254  -1.72198  -8.92220 WT00 110    0.00000
  400  110 TIP3 H2   -16.76788  -3.17581  -9.32653 WT00 110    0.00000
  401  111 TIP3 OH2  -13.76255  -0.90104   9.08495 WT00 111    0.00000
  402  111 TIP3 H1   -14.43679  -1.58646   9.24887 WT00 111    0.00000
  403  111 TIP3 H2   -13.86241  -0.76179   8.13135 WT00 111    0.00000
  404  112 TIP3 OH2  -14.23710   6.64794  -6.36190 WT00 112    0.00000
  405  112 TIP3 H1   -14.07717   6.81125  -5.41193 WT00 112    0.00000
  406  112 TIP3 H2   -14.80947   7.39773  -6.60168 WT00 112    0.00000
  407  113 TIP3 OH2   -9.82339  -3.95523   1.02009 WT00 113    0.00000
  408  113 TIP3 H1   -10.40806  -4.65333   1.35551 WT00 113    0.00000
  409  113 TIP3 H2    -8.98431  -4.44156   0.86317 WT00 113    0.00000
  410  114 TIP3 OH2  -12.46344   5.79870  -8.28622 WT00 114    0.00000
  411  114 TIP3 H1   -12.51820   4.82191  -8.19755 WT00 114    0.00000
  412  114 TIP3 H2   -13.00434   6.09019  -7.52146 WT00 114    0.00000
  413  115 TIP3 OH2  -11.29601   4.72595  -5.10224 WT00 115    0.00000
  414  115 TIP3 H1   -11.42348   3.77081  -5.16413 WT00 115    0.00000
  415  115 TIP3 H2   -10.49480   4.78638  -4.55004 WT00 115    0.00000
  416  116 TIP3 OH2  -14.79644   1.94569  -2.25644 WT00 116    0.00000
  417  116 TIP3 H1   -15.37664   2.63210  -2.62712 WT00 116    0.00000
  418  116 TIP3 H2   -15.29904   1.62977  -1.50075 WT00 116    0.00000
  419  117 TIP3 OH2  -14.63821   7.70264   3.49554 WT00 117    0.00000
  420  117 TIP3 H1   -14.47349   8.55786   3.06867 WT00 117    0.00000
  421  117 TIP3 H2   -14.92389   7.15257   2.73669 WT00 117    0.00000
  422  118 TIP3 OH2  -14.05658   8.95803  -8.82468 WT00 118    0.00000
  423  118 TIP3 H1   -14.98158   8.82275  -8.56692 WT00 118    0.00000
  424  118 TIP3 H2   -14.08502   8.75240  -9.78751 WT00 118    0.00000
  425  119 TIP3 OH2  -11.16687  -6.68142  -0.11879 WT00 119    0.00000
  426  119 TIP3 H1   -10.38717  -6.33344  -0.60736 WT00 119    0.00000
  427  119 TIP3 H2   -11.66398  -7.07021  -0.87037 WT00 119    0.00000
  428  120 TIP3 OH2  -14.28454   3.03073   6.68028 WT00 120    0.00000
  429  120 TIP3 H1   -13.40698   2.81942   6.30402 WT00 120    0.00000
  430  120 TIP3 H2   -14.23344   4.00666   6.70475 WT00 120    0.00000
  431  121 TIP3 OH2  -10.85874  -5.40962  -6.80598 WT00 121    0.00000
  432  121 TIP3 H1   -10.57854  -4.73813  -7.46230 WT00 121    0.00000
  433  121 TIP3 H2   -11.61440  -5.82129  -7.27848 WT00 121    0.00000
  434  122 TIP3 OH2  -15.96071  -7.81611  -4.97727 WT00 122    0.00000
  435  122 TIP3 H1   -16.87918  -7.98709  -4.68891 WT00 122    0.00000
  436  122 TIP3 H2   -15.49984  -8.44037  -4.37264 WT00 122    0.00000
  437  123 TIP3 OH2  -11.95135  -4.23492   3.08695 WT00 123    0.00000
  438  123 TIP3 H1   -12.85860  -4.08253   3.43963 WT00 123    0.00000
  439  123 TIP3 H2   -11.48360  -3.49426   3.49785 WT00 123    0.00000
  440  124 TIP3 OH2   -9.60184   4.48640   7.90992 WT00 124    0.00000
  441  124 TIP3 H1    -9.09672   4.81601   7.14593 WT00 124    0.00000
  442  124 TIP3 H2   -10.50670   4.74402   7.62622 WT00 124    0.00000
  443  125 TIP3 OH2  -15.28119   8.99156  -3.05296 WT00 125    0.00000
  444  125 TIP3 H1   -14.66662   8.26001  -3.28116 WT00 125    0.00000
  445  125 TIP3 H2   -14.86499   9.35807  -2.26397 WT00 125    0.00000
  446  126 TIP3 OH2  -11.38765   0.35213   4.11591 WT00 126    0.00000
  447  126 TIP3 H1   -11.89877  -0.07398   3.39392 WT00 126    0.00000
  448  126 TIP3 H2   -10.58065   0.67193   3.65144 WT00 126    0.00000
  449  127 TIP3 OH2  -16.09985   1.98599   8.35063 WT00 127    0.00000
  450  127 TIP3 H1   -15.32097   2.27174   7.81954 WT00 127    0.00000
  451  127 TIP3 H2   -16.41790   2.83565   8.65965 WT00 127    0.00000
  452  128 TIP3 OH2  -13.36663  -5.35282  -3.70868 WT00 128    0.00000
  453  128 TIP3 H1   -13.61110  -4.59845  -3.12390 WT00 128    0.00000
  454  128 TIP3 H2   -13.23357  -6.06751  -3.05918 WT00 128    0.00000
  455  129 TIP3 OH2  -11.34984   1.90635   8.31276 WT00 129    0.00000
  456  129 TIP3 H1   -10.46620   1.53298   8.14216 WT00 129    0.00000
  457  129 TIP3 H2   -11.61270   2.15270   7.41199 WT00 129    0.00000
  458  130 TIP3 OH2  -10.05683   8.13198  -4.52162 WT00 130    0.00000
  459  130 TIP3 H1   -10.76700   8.79328  -4.42843 WT00 130    0.00000
  460  130 TIP3 H2   -10.35695   7.63810  -5.29781 WT00 130    0.00000
  461  131 TIP3 OH2  -11.67002  -8.13497  -5.02340 WT00 131    0.00000
  462  131 TIP3 H1   -11.71678  -8.58141  -5.89759 WT00 131    0.00000
  463  131 TIP3 H2   -11.41525  -7.23684  -5.28031 WT00 131    0.00000
  464  132 TIP3 OH2  -15.56275   5.86964   1.59207 WT00 132    0.00000
  465  132 TIP3 H1   -15.37656   5.66497   0.65838 WT00 132    0.00000
  466  132 TIP3 H2   -15.58185   4.98446   1.98337 WT00 132    0.00000
  467  133 TIP3 OH2  -14.97708  -2.92786   6.68778 WT00 133    0.00000
  468  133 TIP3 H1   -15.74088  -2.33216   6.58643 WT00 133    0.00000
  469  133 TIP3 H2   -15.18849  -3.36182   7.52198 WT00 133    0.00000
  470  134 TIP3 OH2  -12.76645   0.59707  -0.42882 WT00 134    0.00000
  471  134 TIP3 H1   -12.49827   0.75234  -1.34741 WT00 134    0.00000
  472  134 TIP3 H2   -12.16962  -0.13456  -0.17182 WT00 134    0.00000
  473  135 TIP3 OH2  -12.95207  -0.99474   2.22903 WT00 135    0.00000
  474  135 TIP3 H1   -13.74687  -1.05440   1.66814 WT00 135    0.00000
  475  135 TIP3 H2   -12.29691  -1.34708   1.59372 WT00 135    0.00000
  476  136 TIP3 OH2  -10.39456  -0.74264   6.47807 WT00 136    0.00000
  477  136 TIP3 H1    -9.49300  -0.53999   6.17658 WT00 136    0.00000
  478  136 TIP3 H2   -10.90713  -0.51471   5.67589 WT00 136    0.00000
  479  137 TIP3 OH2  -14.55267  -6.29691   3.10756 WT00 137    0.00000
  480  137 TIP3 H1   -13.68026  -6.67772   2.88962 WT00 137    0.00000
  481  137 TIP3 H2   -14.91750  -6.99951   3.69236 WT00 137    0.00000
  482  138 TIP3 OH2  -14.51072   5.18849  -1.18521 WT00 138    0.00000
  483  138 TIP3 H1   -14.16659   4.33906  -0.83985 WT00 138    0.00000
  484  138 TIP3 H2   -15.18378   4.87366  -1.82442 WT00 138    0.00000
  485  139 TIP3 OH2  -14.47404  -3.68984   4.01890 WT00 139    0.00000
  486  139 TIP3 H1   -14.78612  -3.53399   4.92733 WT00 139    0.00000
  487  139 TIP3 H2   -14.82563  -4.58216   3.82205 WT00 139    0.00000
  488  140 TIP3 OH2  -10.98782  -6.62473   4.38343 WT00 140    0.00000
  489  140 TIP3 H1   -11.23458  -5.69286   4.23681 WT00 140    0.00000
  490  140 TIP3 H2   -11.39210  -7.02527   3.58438 WT00 140    0.00000
  491  141 TIP3 OH2   -9.80620   4.60272   4.18357 WT00 141    0.00000
  492  141 TIP3 H1    -9.72013   5.29380   4.86064 WT00 141    0.00000
  493  141 TIP3 H2   -10.34572   3.94150   4.64940 WT00 141    0.00000
  494  142 TIP3 OH2  -10.32847   7.23306  -9.07445 WT00 142    0.00000
  495  142 TIP3 H1   -11.13147   6.73765  -8.78052 WT00 142    0.00000
  496  142 TIP3 H2   -10.06958   6.66320  -9.81070 WT00 142    0.00000
  497  143 TIP3 OH2  -12.69154   6.76909   0.23577 WT00 143    0.00000
  498  143 TIP3 H1   -12.08050   6.21058   0.76747 WT00 143    0.00000
  499  143 TIP3 H2   -13.28047   6.10492  -0.17462 WT00 143    0.00000
  500  144 TIP3 OH2  -16.23828  -6.91250  -1.40116 WT00 144    0.00000
  501  144 TIP3 H1   -16.93409  -6.26538  -1.21840 WT00 144    0.00000
  502  144 TIP3 H2   -16.14227  -6.74477  -2.34922 WT00 144    0.00000
  503  145 TIP3 OH2  -11.77667   9.07911  -7.37761 WT00 145    0.00000
  504  145 TIP3 H1   -11.15041   8.59358  -7.94415 WT00 145    0.00000
  505  145 TIP3 H2   -12.61969   8.86891  -7.84163 WT00 145    0.00000
  506  146 TIP3 OH2  -12.89585  -6.85256  -7.98953 WT00 146    0.00000
  507  146 TIP3 H1   -13.71603  -6.75958  -7.47927 WT00 146    0.00000
  508  146 TIP3 H2   -12.76666  -7.81903  -8.00397 WT00 146    0.00000
  509  147 TIP3 OH2  -11.90161   2.70817   5.35467 WT00 147    0.00000
  510  147 TIP3 H1   -11.68669   1.82485   4.97746 WT00 147    0.00000
  511  147 TIP3 H2   -12.34256   3.11974   4.58099 WT00 147    0.00000
  512  148 TIP3 OH2  -13.62331   6.84248  -3.58367 WT00 148    0.00000
  513  148 TIP3 H1   -13.89122   6.19425  -2.90853 WT00 148    0.00000
  514  148 TIP3 H2   -12.68180   6.63626  -3.68101 WT00 148    0.00000
  515  149 TIP3 OH2  -13.41247   3.65964   3.17851 WT00 149    0.00000
  516  149 TIP3 H1   -14.25408   3.19136   3.37395 WT00 149    0.00000
  517  149 TIP3 H2   -13.30685   3.50056   2.21811 WT00 149    0.00000
  518  150 TIP3 OH2  -15.96084   0.18659   6.30837 WT00 150    0.00000
  519  150 TIP3 H1   -16.10288   0.78834   7.06772 WT00 150    0.00000
  520  150 TIP3 H2   -16.85801  -0.14976   6.16423 WT00 150    0.00000
  521  151 TIP3 OH2  -12.52441   1.85594  -5.23689 WT00 151    0.00000
  522  151 TIP3 H1   -13.20922   2.36450  -4.78038 WT00 151    0.00000
  523  151 TIP3 H2   -13.00374   1.57517  -6.04179 WT00 151    0.00000
  524  152 TIP3 OH2  -15.71011  -8.32621   4.39074 WT00 152    0.00000
  525  152 TIP3 H1   -16.27472  -7.95610   5.08110 WT00 152    0.00000
  526  152 TIP3 H2   -15.76091  -9.27378   4.57766 WT00 152    0.00000
  527  153 TIP3 OH2  -15.29023  -0.20871   3.68494 WT00 153    0.00000
  528  153 TIP3 H1   -15.25536  -0.18864   4.66186 WT00 153    0.00000
  529  153 TIP3 H2   -14.44420  -0.63044   3.45498 WT00 153    0.00000
  530  154 TIP3 OH2  -14.05924   0.75822  -7.31480 WT00 154    0.00000
  531  154 TIP3 H1   -13.88363   0.18425  -8.09378 WT00 154    0.00000
  532  154 TIP3 H2   -15.01086   0.64132  -7.20082 WT00 154    0.00000
  533  155 TIP3 OH2  -15.72050   2.79890   4.30115 WT00 155    0.00000
  534  155 TIP3 H1   -15.38002   2.77511   5.21620 WT00 155    0.00000
  535  155 TIP3 H2   -16.13639   1.92165   4.22615 WT00 155    0.00000
  536  156 TIP3 OH2  -16.11239   4.17529  -3.26443 WT00 156    0.00000
  537  156 TIP3 H1   -15.94824   3.84538  -4.16897 WT00 156    0.00000
  538  156 TIP3 H2   -16.63264   4.97496  -3.46997 WT00 156    0.00000
  539  157 TIP3 OH2  -11.27570  -1.73987   0.15351 WT00 157    0.00000
  540  157 TIP3 H1   -11.27353  -1.84453  -0.82280 WT00 157    0.00000
  541  157 TIP3 H2   -10.75316  -2.52383   0.42171 WT00 157    0.00000
  542  158 TIP3 OH2  -10.63277   5.61509   1.70498 WT00 158    0.00000
  543  158 TIP3 H1   -10.33672   5.12598   2.50250 WT00 158    0.00000
  544  158 TIP3 H2    -9.94701   5.37026   1.05829 WT00 158    0.00000
  545  159 TIP3 OH2  -12.30141  -4.20445   6.35039 WT00 159    0.00000
  546  159 TIP3 H1   -13.00961  -3.54726   6.26861 WT00 159    0.00000
  547  159 TIP3 H2   -12.73386  -4.87213   6.92356 WT00 159    0.00000
  548  160 TIP3 OH2  -16.32287   8.70924  -0.00581 WT00 160    0.00000
  549  160 TIP3 H1   -16.44774   9.28952  -0.76757 WT00 160    0.00000
  550  160 TIP3 H2   -16.49720   7.84130  -0.42970 WT00 160    0.00000
  551  161 TIP3 OH2  -15.34704   4.09130  -6.07369 WT00 161    0.00000
  552  161 TIP3 H1   -14.66267   4.73825  -6.33390 WT00 161    0.00000
  553  161 TIP3 H2   -15.73224   3.85450  -6.92542 WT00 161    0.00000
  554  162 TIP3 OH2  -11.19238   3.45508  -1.44163 WT00 162    0.00000
  555  162 TIP3 H1   -10.70503   4.07116  -2.01515 WT00 162    0.00000
  556  162 TIP3 H2   -11.12358   2.63915  -1.98809 WT00 162    0.00000
  557  163 TIP3 OH2  -14.62880   5.52181   8.63196 WT00 163    0.00000
  558  163 TIP3 H1   -13.80261   5.78470   9.07319 WT00 163    0.00000
  559  163 TIP3 H2   -14.86074   6.31964   8.13091 WT00 163    0.00000
  560  164 TIP3 OH2  -13.27079  -6.14112   7.98192 WT00 164    0.00000
  561  164 TIP3 H1   -13.00292  -6.31122   8.90668 WT00 164    0.00000
  562  164 TIP3 H2   -14.17667  -6.53125   8.00837 WT00 164    0.00000
  563  165 TIP3 OH2  -10.33090   8.25806   6.02567 WT00 165    0.00000
  564  165 TIP3 H1   -10.76909   8.18540   5.14584 WT00 165    0.00000
  565  165 TIP3 H2    -9.98056   9.17193   5.99148 WT00 165    0.00000
  566  166 TIP3 OH2  -10.51339  -5.12643  -4.04438 WT00 166    0.00000
  567  166 TIP3 H1   -11.45455  -4.96797  -3.86676 WT00 166    0.00000
  568  166 TIP3 H2   -10.50941  -5.11328  -5.02028 WT00 166    0.00000
  569  167 TIP3 OH2  -11.27168   8.50750  -1.32010 WT00 167    0.00000
  570  167 TIP3 H1   -10.60377   8.72329  -0.63578 WT00 167    0.00000
  571  167 TIP3 H2   -11.76757   7.80030  -0.85846 WT00 167    0.00000
  572  168 TIP3 OH2  -12.38286  -7.83086  -2.35142 WT00 168    0.00000
  573  168 TIP3 H1   -12.07244  -8.69575  -2.00125 WT00 168    0.00000
  574  168 TIP3 H2   -12.12882  -7.93012  -3.29283 WT00 168    0.00000
  575  169 TIP3 OH2  -14.45826  -2.85730  -5.87800 WT00 169    0.00000
  576  169 TIP3 H1   -14.42888  -3.78056  -6.19384 WT00 169    0.00000
  577  169 TIP3 H2   -15.11950  -2.92229  -5.18033 WT00 169    0.00000
  578  170 TIP3 OH2  -11.47962   7.59538   3.64445 WT00 170    0.00000
  579  170 TIP3 H1   -11.14456   7.02515   2.92838 WT00 170    0.00000
  580  170 TIP3 H2   -12.43699   7.50966   3.54402 WT00 170    0.00000
  581  171 TIP3 OH2  -13.97823  -3.35483  -1.96596 WT00 171    0.00000
  582  171 TIP3 H1   -13.63474  -3.78429  -1.14374 WT00 171    0.00000
  583  171 TIP3 H2   -14.52066  -2.66719  -1.53825 WT00 171    0.00000
  584  172 TIP3 OH2  -13.76670   9.19169   0.91913 WT00 172    0.00000
  585  172 TIP3 H1   -14.67109   9.07701   0.56591 WT00 172    0.00000
  586  172 TIP3 H2   -13.34211   8.35427   0.63284 WT00 172    0.00000
  587  173 TIP3 OH2  -11.72541  -1.85676  -2.56481 WT00 173    0.00000
  588  173 TIP3 H1   -12.52470  -2.39873  -2.42866 WT00 173    0.00000
  589  173 TIP3 H2   -11.83445  -1.59862  -3.49918 WT00 173    0.00000
  590  174 TIP3 OH2  -12.28145  -7.58701   2.19047 WT00 174    0.00000
  591  174 TIP3 H1   -11.83554  -7.24833   1.38667 WT00 174    0.00000
  592  174 TIP3 H2   -12.81575  -8.31185   1.79229 WT00 174    0.00000
  593  175 TIP3 OH2  -14.80965  -5.62615  -6.00830 WT00 175    0.00000
  594  175 TIP3 H1   -15.24257  -6.46380  -5.72782 WT00 175    0.00000
  595  175 TIP3 H2   -14.15155  -5.53608  -5.28235 WT00 175    0.00000
  596  176 TIP3 OH2  -10.13912  -5.75292   7.43429 WT00 176    0.00000
  597  176 TIP3 H1   -10.44503  -5.21960   8.18821 WT00 176    0.00000
  598  176 TIP3 H2   -10.71054  -5.37423   6.73667 WT00 176    0.00000
  599  177 TIP3 OH2  -15.66596  -7.26343   8.26986 WT00 177    0.00000
  600  177 TIP3 H1   -16.00351  -7.81232   8.98511 WT00 177    0.00000
  601  177 TIP3 H2   -16.51184  -7.06989   7.82447 WT00 177    0.00000
  602  178 TIP3 OH2  -10.85402  -1.22958   9.14636 WT00 178    0.00000
  603  178 TIP3 H1   -11.80694  -1.02634   9.19489 WT00 178    0.00000
  604  178 TIP3 H2   -10.68989  -1.08342   8.18510 WT00 178    0.00000
  605  179 TIP3 OH2  -12.44012  -1.20307  13.46457 WT00 179    0.00000
  606  179 TIP3 H1   -12.80085  -0.32438  13.27613 WT00 179    0.00000
  607  179 TIP3 H2   -13.17933  -1.78349  13.16568 WT00 179    0.00000
  608  180 TIP3 OH2   -9.72416  -1.63695  13.00775 WT00 180    0.00000
  609  180 TIP3 H1   -10.69470  -1.50726  13.01762 WT00 180    0.00000
  610  180 TIP3 H2    -9.45385  -1.13562  12.20857 WT00 180    0.00000
  611  181 TIP3 OH2  -12.80004   3.05762  10.42683 WT00 181    0.00000
  612  181 TIP3 H1   -12.45586   2.67424   9.59216 WT00 181    0.00000
  613  181 TIP3 H2   -13.45552   2.38451  10.68172 WT00 181    0.00000
  614  182 TIP3 OH2  -10.05854   2.35229  10.92503 WT00 182    0.00000
  615  182 TIP3 H1   -10.96011   2.58296  11.20876 WT00 182    0.00000
  616  182 TIP3 H2   -10.17015   2.44490   9.96314 WT00 182    0.00000
  617  183 TIP3 OH2  -11.05965   0.85613  15.59283 WT00 183    0.00000
  618  183 TIP3 H1   -11.34670   1.24193  14.74660 WT00 183    0.00000
  619  183 TIP3 H2   -10.17113   0.51143  15.40118 WT00 183    0.00000
  620  184 TIP3 OH2   -9.94202  -3.83278   9.58271 WT00 184    0.00000
  621  184 TIP3 H1   -10.32553  -2.93245   9.57783 WT00 184    0.00000
  622  184 TIP3 H2    -9.25089  -3.70261   8.89838 WT00 184    0.00000
  623  185 TIP3 OH2  -16.15456  -2.48325   9.60817 WT00 185    0.00000
  624  185 TIP3 H1   -16.72890  -1.70223   9.72561 WT00 185    0.00000
  625  185 TIP3 H2   -16.78785  -3.16315   9.33029 WT00 185    0.00000
  626  186 TIP3 OH2  -14.25622   6.67434  12.29570 WT00 186    0.00000
  627  186 TIP3 H1   -14.14082   6.87253  13.24030 WT00 186    0.00000
  628  186 TIP3 H2   -14.82366   7.41087  12.00509 WT00 186    0.00000
  629  187 TIP3 OH2  -12.45408   5.79928  10.39227 WT00 187    0.00000
  630  187 TIP3 H1   -12.51821   4.82199  10.46593 WT00 187    0.00000
  631  187 TIP3 H2   -12.99615   6.08833  11.15558 WT00 187    0.00000
  632  188 TIP3 OH2  -11.41139   4.76737  13.63635 WT00 188    0.00000
  633  188 TIP3 H1   -11.47280   3.81711  13.47868 WT00 188    0.00000
  634  188 TIP3 H2   -10.56567   4.80623  14.13735 WT00 188    0.00000
  635  189 TIP3 OH2  -14.75251   1.59599  16.05827 WT00 189    0.00000
  636  189 TIP3 H1   -15.22041   2.41889  15.79563 WT00 189    0.00000
  637  189 TIP3 H2   -15.19335   1.39703  16.90252 WT00 189    0.00000
  638  190 TIP3 OH2  -14.04844   8.94808   9.82815 WT00 190    0.00000
  639  190 TIP3 H1   -14.98017   8.83122  10.06000 WT00 190    0.00000
  640  190 TIP3 H2   -14.06409   8.75315   8.86151 WT00 190    0.00000
  641  191 TIP3 OH2  -10.87722  -5.38326  11.81881 WT00 191    0.00000
  642  191 TIP3 H1   -10.59052  -4.73241  11.14514 WT00 191    0.00000
  643  191 TIP3 H2   -11.62766  -5.81445  11.35670 WT00 191    0.00000
  644  192 TIP3 OH2  -16.00411  -7.74111  13.68731 WT00 192    0.00000
  645  192 TIP3 H1   -16.94611  -7.90716  13.87380 WT00 192    0.00000
  646  192 TIP3 H2   -15.60194  -8.41412  14.27004 WT00 192    0.00000
  647  193 TIP3 OH2  -15.39412   8.90806  15.56298 WT00 193    0.00000
  648  193 TIP3 H1   -14.70572   8.26370  15.29544 WT00 193    0.00000
  649  193 TIP3 H2   -14.93446   9.48513  16.18509 WT00 193    0.00000
  650  194 TIP3 OH2  -13.48494  -5.19340  14.98461 WT00 194    0.00000
  651  194 TIP3 H1   -13.41327  -4.37737  15.49405 WT00 194    0.00000
  652  194 TIP3 H2   -13.65638  -5.80915  15.72681 WT00 194    0.00000
  653  195 TIP3 OH2  -10.27193   8.18405  14.11820 WT00 195    0.00000
  654  195 TIP3 H1   -10.88759   8.93628  14.01667 WT00 195    0.00000
  655  195 TIP3 H2   -10.45689   7.66016  13.32648 WT00 195    0.00000
  656  196 TIP3 OH2  -11.70560  -8.14330  13.66654 WT00 196    0.00000
  657  196 TIP3 H1   -11.75664  -8.51074  12.75643 WT00 196    0.00000
  658  196 TIP3 H2   -11.37433  -7.24658  13.49815 WT00 196    0.00000
  659  197 TIP3 OH2  -10.32858   7.23571   9.58768 WT00 197    0.00000
  660  197 TIP3 H1   -11.13208   6.74099   9.88075 WT00 197    0.00000
  661  197 TIP3 H2   -10.07534   6.67054   8.84624 WT00 197    0.00000
  662  198 TIP3 OH2  -11.77999   9.06922  11.29379 WT00 198    0.00000
  663  198 TIP3 H1   -11.14594   8.59797  10.72292 WT00 198    0.00000
  664  198 TIP3 H2   -12.61665   8.86336  10.81629 WT00 198    0.00000
  665  199 TIP3 OH2  -12.89835  -6.85577  10.65707 WT00 199    0.00000
  666  199 TIP3 H1   -13.69356  -6.71069  11.19981 WT00 199    0.00000
  667  199 TIP3 H2   -12.81809  -7.82606  10.64859 WT00 199    0.00000
  668  200 TIP3 OH2  -13.63673   6.76297  15.11667 WT00 200    0.00000
  669  200 TIP3 H1   -13.93024   5.86148  15.32437 WT00 200    0.00000
  670  200 TIP3 H2   -12.70573   6.60042  14.88864 WT00 200    0.00000
  671  201 TIP3 OH2  -12.52226   1.88078  13.38540 WT00 201    0.00000
  672  201 TIP3 H1   -13.22996   2.35730  13.83992 WT00 201    0.00000
  673  201 TIP3 H2   -12.99474   1.56891  12.58709 WT00 201    0.00000
  674  202 TIP3 OH2  -14.05984   0.74066  11.35148 WT00 202    0.00000
  675  202 TIP3 H1   -13.89024   0.16943  10.56863 WT00 202    0.00000
  676  202 TIP3 H2   -15.01489   0.64190  11.45867 WT00 202    0.00000
  677  203 TIP3 OH2  -15.71368   3.97943  15.25653 WT00 203    0.00000
  678  203 TIP3 H1   -15.80082   3.82246  14.29626 WT00 203    0.00000
  679  203 TIP3 H2   -16.39462   4.64994  15.41736 WT00 203    0.00000
  680  204 TIP3 OH2  -15.37705   4.10421  12.46210 WT00 204    0.00000
  681  204 TIP3 H1   -14.67638   4.73843  12.21736 WT00 204    0.00000
  682  204 TIP3 H2   -15.78205   3.91843  11.60683 WT00 204    0.00000
  683  205 TIP3 OH2  -10.42445  -5.21619  14.54475 WT00 205    0.00000
  684  205 TIP3 H1   -11.26067  -4.95484  14.94945 WT00 205    0.00000
  685  205 TIP3 H2   -10.60222  -5.11179  13.59278 WT00 205    0.00000
  686  206 TIP3 OH2  -12.38411  -8.10320  16.45147 WT00 206    0.00000
  687  206 TIP3 H1   -11.86730  -8.88323  16.70876 WT00 206    0.00000
  688  206 TIP3 H2   -12.11884  -7.98622  15.51473 WT00 206    0.00000
  689  207 TIP3 OH2  -14.47090  -2.87898  12.82391 WT00 207    0.00000
  690  207 TIP3 H1   -14.40730  -3.78802  12.47223 WT00 207    0.00000
  691  207 TIP3 H2   -15.24513  -2.96056  13.39196 WT00 207    0.00000
  692  208 TIP3 OH2  -11.15671  -2.29122  15.66156 WT00 208    0.00000
  693  208 TIP3 H1   -11.93339  -2.61778  16.13759 WT00 208    0.00000
  694  208 TIP3 H2   -11.54065  -1.97135  14.82322 WT00 208    0.00000
  695  209 TIP3 OH2  -14.73263  -5.64695  12.59260 WT00 209    0.00000
  696  209 TIP3 H1   -15.25445  -6.41235  12.92321 WT00 209    0.00000
  697  209 TIP3 H2   -14.14514  -5.51286  13.37039 WT00 209    0.00000
  698  210 TIP3 OH2  -13.01178  10.51620 -12.75942 WT00 210    0.00000
  699  210 TIP3 H1   -12.24540  10.82208 -13.27599 WT00 210    0.00000
  700  210 TIP3 H2   -13.04427  11.20640 -12.07200 WT00 210    0.00000
  701  211 TIP3 OH2  -11.96431  14.32334 -15.51687 WT00 211    0.00000
  702  211 TIP3 H1   -12.76626  14.61761 -15.04259 WT00 211    0.00000
  703  211 TIP3 H2   -11.32954  15.04774 -15.40218 WT00 211    0.00000
  704  212 TIP3 OH2  -15.50344  15.10898 -11.88736 WT00 212    0.00000
  705  212 TIP3 H1   -15.24076  16.05301 -11.91043 WT00 212    0.00000
  706  212 TIP3 H2   -15.66725  14.98437 -10.94105 WT00 212    0.00000
  707  213 TIP3 OH2  -14.33800  12.28425 -15.62351 WT00 213    0.00000
  708  213 TIP3 H1   -13.58095  11.67096 -15.71759 WT00 213    0.00000
  709  213 TIP3 H2   -14.94667  11.73281 -15.09892 WT00 213    0.00000
  710  214 TIP3 OH2  -14.53118  14.81011 -14.44400 WT00 214    0.00000
  711  214 TIP3 H1   -14.89199  14.64344 -13.54687 WT00 214    0.00000
  712  214 TIP3 H2   -14.70541  13.94077 -14.86608 WT00 214    0.00000
  713  215 TIP3 OH2  -11.05475  11.98165 -14.27408 WT00 215    0.00000
  714  215 TIP3 H1   -11.23941  12.93169 -14.40504 WT00 215    0.00000
  715  215 TIP3 H2   -11.26848  11.66068 -15.16289 WT00 215    0.00000
  716  216 TIP3 OH2  -15.78421  10.25144 -14.44234 WT00 216    0.00000
  717  216 TIP3 H1   -16.11732  10.94996 -13.85120 WT00 216    0.00000
  718  216 TIP3 H2   -15.96201   9.47212 -13.88726 WT00 216    0.00000
  719  217 TIP3 OH2  -12.34184  14.44586 -12.30963 WT00 217    0.00000
  720  217 TIP3 H1   -13.09388  15.04802 -12.30465 WT00 217    0.00000
  721  217 TIP3 H2   -12.69777  13.72281 -11.74579 WT00 217    0.00000
  722  218 TIP3 OH2  -13.25253  12.48064 -10.68364 WT00 218    0.00000
  723  218 TIP3 H1   -12.99156  12.33640  -9.75358 WT00 218    0.00000
  724  218 TIP3 H2   -14.17379  12.12706 -10.64598 WT00 218    0.00000
  725  219 TIP3 OH2  -10.16693  12.81695 -11.27942 WT00 219    0.00000
  726  219 TIP3 H1   -10.36658  13.37066 -10.50081 WT00 219    0.00000
  727  219 TIP3 H2   -10.75158  13.23946 -11.93623 WT00 219    0.00000
  728  220 TIP3 OH2  -15.64769  11.35425 -10.42001 WT00 220    0.00000
  729  220 TIP3 H1   -16.00164  10.87220  -9.66438 WT00 220    0.00000
  730  220 TIP3 H2   -16.49374  11.60210 -10.83962 WT00 220    0.00000
  731  221 TIP3 OH2  -16.64462  12.12041   1.30114 WT00 221    0.00000
  732  221 TIP3 H1   -15.97626  12.35090   1.98045 WT00 221    0.00000
  733  221 TIP3 H2   -16.08446  11.99912   0.51489 WT00 221    0.00000
  734  222 TIP3 OH2  -12.95909  10.49596   5.95782 WT00 222    0.00000
  735  222 TIP3 H1   -12.21955  10.75947   5.39100 WT00 222    0.00000
  736  222 TIP3 H2   -12.97842  11.22666   6.60033 WT00 222    0.00000
  737  223 TIP3 OH2  -12.96988  14.41145   0.40210 WT00 223    0.00000
  738  223 TIP3 H1   -12.75354  14.43872   1.35702 WT00 223    0.00000
  739  223 TIP3 H2   -12.57165  13.55395   0.17309 WT00 223    0.00000
  740  224 TIP3 OH2   -9.88267  14.58636  -9.15460 WT00 224    0.00000
  741  224 TIP3 H1    -9.93937  15.43341  -8.66658 WT00 224    0.00000
  742  224 TIP3 H2    -9.33583  14.87632  -9.92315 WT00 224    0.00000
  743  225 TIP3 OH2  -16.25507  15.80817  -9.07721 WT00 225    0.00000
  744  225 TIP3 H1   -16.40316  16.74740  -9.22957 WT00 225    0.00000
  745  225 TIP3 H2   -17.06294  15.39887  -9.44676 WT00 225    0.00000
  746  226 TIP3 OH2   -9.72996  14.65657   1.08648 WT00 226    0.00000
  747  226 TIP3 H1   -10.36689  13.93518   1.16830 WT00 226    0.00000
  748  226 TIP3 H2    -8.89832  14.18227   0.87271 WT00 226    0.00000
  749  227 TIP3 OH2  -11.21907  12.06477  -0.14393 WT00 227    0.00000
  750  227 TIP3 H1   -10.41057  12.35777  -0.62340 WT00 227    0.00000
  751  227 TIP3 H2   -11.67916  11.60381  -0.87903 WT00 227    0.00000
  752  228 TIP3 OH2  -10.84505  13.25504  -6.83258 WT00 228    0.00000
  753  228 TIP3 H1   -10.61409  13.81350  -7.60319 WT00 228    0.00000
  754  228 TIP3 H2   -11.63406  12.79894  -7.20465 WT00 228    0.00000
  755  229 TIP3 OH2  -15.95558  10.83002  -4.92844 WT00 229    0.00000
  756  229 TIP3 H1   -16.88697  10.67770  -4.67998 WT00 229    0.00000
  757  229 TIP3 H2   -15.52784  10.18789  -4.32188 WT00 229    0.00000
  758  230 TIP3 OH2  -12.03052  14.39916   3.03004 WT00 230    0.00000
  759  230 TIP3 H1   -12.81847  14.57365   3.58555 WT00 230    0.00000
  760  230 TIP3 H2   -11.39464  15.07380   3.31265 WT00 230    0.00000
  761  231 TIP3 OH2  -13.29987  13.26785  -3.75953 WT00 231    0.00000
  762  231 TIP3 H1   -13.56691  14.07934  -3.26220 WT00 231    0.00000
  763  231 TIP3 H2   -13.27887  12.60783  -3.04621 WT00 231    0.00000
  764  232 TIP3 OH2  -11.65711  10.49769  -5.01251 WT00 232    0.00000
  765  232 TIP3 H1   -11.72061  10.04680  -5.88476 WT00 232    0.00000
  766  232 TIP3 H2   -11.52085  11.41484  -5.28485 WT00 232    0.00000
  767  233 TIP3 OH2  -15.50845  15.12759   6.76268 WT00 233    0.00000
  768  233 TIP3 H1   -15.24115  16.07049   6.75156 WT00 233    0.00000
  769  233 TIP3 H2   -15.67611  14.98232   7.70401 WT00 233    0.00000
  770  234 TIP3 OH2  -14.51834  12.36284   3.09305 WT00 234    0.00000
  771  234 TIP3 H1   -13.66644  11.93671   2.87145 WT00 234    0.00000
  772  234 TIP3 H2   -14.92620  11.66346   3.65559 WT00 234    0.00000
  773  235 TIP3 OH2  -14.54832  14.82044   4.22331 WT00 235    0.00000
  774  235 TIP3 H1   -14.91329  14.64658   5.11856 WT00 235    0.00000
  775  235 TIP3 H2   -14.71565  13.94722   3.79433 WT00 235    0.00000
  776  236 TIP3 OH2  -10.97480  12.01148   4.36546 WT00 236    0.00000
  777  236 TIP3 H1   -11.20442  12.94013   4.19827 WT00 236    0.00000
  778  236 TIP3 H2   -11.38080  11.59826   3.57284 WT00 236    0.00000
  779  237 TIP3 OH2  -16.19745  11.78208  -1.40074 WT00 237    0.00000
  780  237 TIP3 H1   -16.92706  12.39340  -1.22648 WT00 237    0.00000
  781  237 TIP3 H2   -16.12053  11.94280  -2.35316 WT00 237    0.00000
  782  238 TIP3 OH2  -12.87959  11.80784  -7.96311 WT00 238    0.00000
  783  238 TIP3 H1   -13.70013  11.98314  -7.46408 WT00 238    0.00000
  784  238 TIP3 H2   -12.86305  10.83521  -8.01174 WT00 238    0.00000
  785  239 TIP3 OH2  -15.72017  10.33108   4.33721 WT00 239    0.00000
  786  239 TIP3 H1   -16.25639  10.71550   5.04381 WT00 239    0.00000
  787  239 TIP3 H2   -15.72909   9.39309   4.57489 WT00 239    0.00000
  788  240 TIP3 OH2  -12.35097  14.45463   6.30406 WT00 240    0.00000
  789  240 TIP3 H1   -13.10722  15.05059   6.34994 WT00 240    0.00000
  790  240 TIP3 H2   -12.68108  13.72907   6.88207 WT00 240    0.00000
  791  241 TIP3 OH2  -13.24817  12.51548   7.97150 WT00 241    0.00000
  792  241 TIP3 H1   -12.99143  12.34586   8.89979 WT00 241    0.00000
  793  241 TIP3 H2   -14.16544  12.14984   7.99935 WT00 241    0.00000
  794  242 TIP3 OH2  -10.52076  13.61242  -4.08148 WT00 242    0.00000
  795  242 TIP3 H1   -11.46573  13.68211  -3.85349 WT00 242    0.00000
  796  242 TIP3 H2   -10.58952  13.51226  -5.04831 WT00 242    0.00000
  797  243 TIP3 OH2  -12.37820  10.80653  -2.33297 WT00 243    0.00000
  798  243 TIP3 H1   -12.06094   9.93797  -1.99836 WT00 243    0.00000
  799  243 TIP3 H2   -12.13264  10.72406  -3.27780 WT00 243    0.00000
  800  244 TIP3 OH2  -14.08815  15.64215  -5.99421 WT00 244    0.00000
  801  244 TIP3 H1   -14.30662  14.71181  -6.17922 WT00 244    0.00000
  802  244 TIP3 H2   -14.91584  15.93603  -5.58519 WT00 244    0.00000
  803  245 TIP3 OH2  -14.02199  15.18104  -2.01502 WT00 245    0.00000
  804  245 TIP3 H1   -13.62826  14.94991  -1.14804 WT00 245    0.00000
  805  245 TIP3 H2   -14.72198  15.79226  -1.76713 WT00 245    0.00000
  806  246 TIP3 OH2  -12.26977  11.06819   2.17213 WT00 246    0.00000
  807  246 TIP3 H1   -11.85725  11.43902   1.36486 WT00 246    0.00000
  808  246 TIP3 H2   -12.79393  10.33438   1.77538 WT00 246    0.00000
  809  247 TIP3 OH2  -14.71492  12.91258  -6.06726 WT00 247    0.00000
  810  247 TIP3 H1   -15.21371  12.13296  -5.73431 WT00 247    0.00000
  811  247 TIP3 H2   -14.11467  13.06295  -5.30319 WT00 247    0.00000
  812  248 TIP3 OH2  -10.16297  12.81271   7.39527 WT00 248    0.00000
  813  248 TIP3 H1   -10.36978  13.36410   8.17439 WT00 248    0.00000
  814  248 TIP3 H2   -10.73930  13.23533   6.73271 WT00 248    0.00000
  815  249 TIP3 OH2  -15.65372  11.39935   8.25775 WT00 249    0.00000
  816  249 TIP3 H1   -16.01331  10.87890   8.98395 WT00 249    0.00000
  817  249 TIP3 H2   -16.49009  11.61830   7.80811 WT00 249    0.00000
  818  250 TIP3 OH2   -9.89517  14.59231   9.50418 WT00 250    0.00000
  819  250 TIP3 H1    -9.93295  15.42959  10.01009 WT00 250    0.00000
  820  250 TIP3 H2    -9.34691  14.88592   8.73857 WT00 250    0.00000
  821  251 TIP3 OH2  -16.26669  15.81966   9.61874 WT00 251    0.00000
  822  251 TIP3 H1   -16.39566  16.75576   9.43072 WT00 251    0.00000
  823  251 TIP3 H2   -17.05906  15.40707   9.22106 WT00 251    0.00000
  824  252 TIP3 OH2  -10.87339  13.23405  11.81511 WT00 252    0.00000
  825  252 TIP3 H1   -10.62407  13.79696  11.05498 WT00 252    0.00000
  826  252 TIP3 H2   -11.64701  12.76992  11.42326 WT00 252    0.00000
  827  253 TIP3 OH2  -16.01254  10.94644  13.78822 WT00 253    0.00000
  828  253 TIP3 H1   -16.95549  10.72498  13.87795 WT00 253    0.00000
  829  253 TIP3 H2   -15.61996  10.23876  14.33326 WT00 253    0.00000
  830  254 TIP3 OH2  -13.38637  13.31769  14.93843 WT00 254    0.00000
  831  254 TIP3 H1   -13.41137  14.25717  15.16419 WT00 254    0.00000
  832  254 TIP3 H2   -13.60270  12.92041  15.80744 WT00 254    0.00000
  833  255 TIP3 OH2  -11.70930  10.50474  13.65313 WT00 255    0.00000
  834  255 TIP3 H1   -11.76983  10.09553  12.75995 WT00 255    0.00000
  835  255 TIP3 H2   -11.51308  11.42340  13.42488 WT00 255    0.00000
  836  256 TIP3 OH2  -12.88601  11.79728  10.65942 WT00 256    0.00000
  837  256 TIP3 H1   -13.67500  12.00246  11.20210 WT00 256    0.00000
  838  256 TIP3 H2   -12.89453  10.82445  10.62951 WT00 256    0.00000
  839  257 TIP3 OH2  -10.46147  13.83595  14.50031 WT00 257    0.00000
  840  257 TIP3 H1   -11.29522  13.69209  14.97193 WT00 257    0.00000
  841  257 TIP3 H2   -10.69760  13.59823  13.58738 WT00 257    0.00000
  842  258 TIP3 OH2  -12.38084  10.56098  16.46905 WT00 258    0.00000
  843  258 TIP3 H1   -11.88442   9.76280  16.71478 WT00 258    0.00000
  844  258 TIP3 H2   -12.14289  10.66591  15.52452 WT00 258    0.00000
  845  259 TIP3 OH2  -14.14331  15.60210  12.97513 WT00 259    0.00000
  846  259 TIP3 H1   -14.26397  14.71179  12.60326 WT00 259    0.00000
  847  259 TIP3 H2   -15.07254  15.86965  13.07141 WT00 259    0.00000
  848  260 TIP3 OH2  -14.64176  12.88334  12.55160 WT00 260    0.00000
  849  260 TIP3 H1   -15.23409  12.18491  12.90950 WT00 260    0.00000
  850  260 TIP3 H2   -14.09612  13.04090  13.35409 WT00 260    0.00000
  851  261 TIP3 OH2    4.63253 -13.02178 -13.36625 WT00 261    0.00000
  852  261 TIP3 H1     4.65562 -13.56120 -14.17240 WT00 261    0.00000
  853  261 TIP3 H2     4.33273 -12.16286 -13.71551 WT00 261    0.00000
  854  262 TIP3 OH2   -4.69696 -15.40982 -14.27077 WT00 262    0.00000
  855  262 TIP3 H1    -4.02026 -15.65473 -14.91173 WT00 262    0.00000
  856  262 TIP3 H2    -4.19417 -14.96768 -13.56436 WT00 262    0.00000
  857  263 TIP3 OH2    4.08441 -10.26963 -11.52794 WT00 263    0.00000
  858  263 TIP3 H1     4.58088  -9.59007 -12.03637 WT00 263    0.00000
  859  263 TIP3 H2     3.30485 -10.42255 -12.09453 WT00 263    0.00000
  860  264 TIP3 OH2   -0.48591 -16.16892 -14.42422 WT00 264    0.00000
  861  264 TIP3 H1    -1.11918 -16.83366 -14.71582 WT00 264    0.00000
  862  264 TIP3 H2    -0.04325 -16.65311 -13.69961 WT00 264    0.00000
  863  265 TIP3 OH2    7.01480 -12.74665 -11.94703 WT00 265    0.00000
  864  265 TIP3 H1     7.27726 -11.81971 -12.11016 WT00 265    0.00000
  865  265 TIP3 H2     6.16312 -12.80220 -12.42437 WT00 265    0.00000
  866  266 TIP3 OH2   -6.88727 -11.91409 -10.23459 WT00 266    0.00000
  867  266 TIP3 H1    -7.31794 -11.03202 -10.13604 WT00 266    0.00000
  868  266 TIP3 H2    -7.23396 -12.40539  -9.46071 WT00 266    0.00000
  869  267 TIP3 OH2   -0.09756 -10.15174 -11.00847 WT00 267    0.00000
  870  267 TIP3 H1    -0.50129  -9.50312 -10.38178 WT00 267    0.00000
  871  267 TIP3 H2    -0.88613 -10.72613 -11.15039 WT00 267    0.00000
  872  268 TIP3 OH2   -8.25115  -9.60274 -10.51794 WT00 268    0.00000
  873  268 TIP3 H1    -8.30414  -8.93548 -11.23309 WT00 268    0.00000
  874  268 TIP3 H2    -9.18245  -9.70191 -10.27985 WT00 268    0.00000
  875  269 TIP3 OH2    4.27263 -10.90865 -15.12611 WT00 269    0.00000
  876  269 TIP3 H1     3.94757 -10.01363 -14.93238 WT00 269    0.00000
  877  269 TIP3 H2     3.58414 -11.28710 -15.68877 WT00 269    0.00000
  878  270 TIP3 OH2    4.47151 -15.46676 -12.09396 WT00 270    0.00000
  879  270 TIP3 H1     5.40055 -15.55979 -12.39662 WT00 270    0.00000
  880  270 TIP3 H2     4.42620 -14.49012 -12.04611 WT00 270    0.00000
  881  271 TIP3 OH2    1.48231 -14.17490 -10.47035 WT00 271    0.00000
  882  271 TIP3 H1     1.35517 -14.00099 -11.43161 WT00 271    0.00000
  883  271 TIP3 H2     2.39470 -13.81869 -10.35177 WT00 271    0.00000
  884  272 TIP3 OH2    8.94758 -14.09870 -10.60483 WT00 272    0.00000
  885  272 TIP3 H1     9.49355 -14.08381 -11.40594 WT00 272    0.00000
  886  272 TIP3 H2     8.08983 -13.81622 -10.99523 WT00 272    0.00000
  887  273 TIP3 OH2   -7.25272 -14.37033 -15.52628 WT00 273    0.00000
  888  273 TIP3 H1    -8.03446 -14.24575 -14.95125 WT00 273    0.00000
  889  273 TIP3 H2    -6.57731 -14.70456 -14.91378 WT00 273    0.00000
  890  274 TIP3 OH2   -8.40156 -12.34412 -12.48347 WT00 274    0.00000
  891  274 TIP3 H1    -9.06373 -11.61695 -12.49255 WT00 274    0.00000
  892  274 TIP3 H2    -7.87598 -12.12146 -11.68561 WT00 274    0.00000
  893  275 TIP3 OH2   -3.97576 -14.57420 -11.58942 WT00 275    0.00000
  894  275 TIP3 H1    -3.88756 -13.63796 -11.83536 WT00 275    0.00000
  895  275 TIP3 H2    -3.18102 -14.71783 -11.05090 WT00 275    0.00000
  896  276 TIP3 OH2    8.90422 -14.11674 -14.33414 WT00 276    0.00000
  897  276 TIP3 H1     9.00984 -13.37069 -13.72449 WT00 276    0.00000
  898  276 TIP3 H2     8.18647 -14.62931 -13.91773 WT00 276    0.00000
  899  277 TIP3 OH2    0.82636 -14.58132 -16.29783 WT00 277    0.00000
  900  277 TIP3 H1     0.16941 -14.90424 -16.93096 WT00 277    0.00000
  901  277 TIP3 H2     0.54436 -15.04780 -15.48862 WT00 277    0.00000
  902  278 TIP3 OH2    0.89138 -13.74091 -13.06988 WT00 278    0.00000
  903  278 TIP3 H1     0.19827 -13.36990 -13.66456 WT00 278    0.00000
  904  278 TIP3 H2     1.17788 -14.52269 -13.58134 WT00 278    0.00000
  905  279 TIP3 OH2   -0.67532 -12.34536 -14.78507 WT00 279    0.00000
  906  279 TIP3 H1    -1.53753 -12.56068 -15.18564 WT00 279    0.00000
  907  279 TIP3 H2    -0.16430 -12.10092 -15.56651 WT00 279    0.00000
  908  280 TIP3 OH2    6.84766 -15.80393 -13.41518 WT00 280    0.00000
  909  280 TIP3 H1     7.19179 -16.70591 -13.50023 WT00 280    0.00000
  910  280 TIP3 H2     6.33971 -15.66694 -14.24539 WT00 280    0.00000
  911  281 TIP3 OH2   -1.02327 -15.40005 -10.63346 WT00 281    0.00000
  912  281 TIP3 H1    -1.03550 -15.75258 -11.53241 WT00 281    0.00000
  913  281 TIP3 H2    -0.17182 -14.92274 -10.62147 WT00 281    0.00000
  914  282 TIP3 OH2    5.11564 -15.19973 -15.47303 WT00 282    0.00000
  915  282 TIP3 H1     4.18471 -15.47097 -15.44072 WT00 282    0.00000
  916  282 TIP3 H2     5.18957 -14.97366 -16.41229 WT00 282    0.00000
  917  283 TIP3 OH2    2.57709 -15.79606 -14.08907 WT00 283    0.00000
  918  283 TIP3 H1     3.17316 -15.49795 -13.37653 WT00 283    0.00000
  919  283 TIP3 H2     2.85776 -16.72669 -14.17231 WT00 283    0.00000
  920  284 TIP3 OH2   -7.79083  -9.28504 -15.37728 WT00 284    0.00000
  921  284 TIP3 H1    -7.16235  -8.54857 -15.47206 WT00 284    0.00000
  922  284 TIP3 H2    -7.29557  -9.84623 -14.74868 WT00 284    0.00000
  923  285 TIP3 OH2   -6.91898 -15.21619 -12.37193 WT00 285    0.00000
  924  285 TIP3 H1    -5.95663 -15.35333 -12.39828 WT00 285    0.00000
  925  285 TIP3 H2    -6.96072 -14.27701 -12.15695 WT00 285    0.00000
  926  286 TIP3 OH2    3.84364 -12.82908 -10.17877 WT00 286    0.00000
  927  286 TIP3 H1     4.61844 -12.84481  -9.58466 WT00 286    0.00000
  928  286 TIP3 H2     3.98154 -11.98238 -10.64156 WT00 286    0.00000
  929  287 TIP3 OH2    8.31536 -10.39321 -12.65437 WT00 287    0.00000
  930  287 TIP3 H1     7.89312 -10.39772 -13.54232 WT00 287    0.00000
  931  287 TIP3 H2     8.69814  -9.49025 -12.64012 WT00 287    0.00000
  932  288 TIP3 OH2   -2.41707 -11.52589 -10.90602 WT00 288    0.00000
  933  288 TIP3 H1    -2.85198 -11.01182 -11.61124 WT00 288    0.00000
  934  288 TIP3 H2    -3.08053 -11.46911 -10.18465 WT00 288    0.00000
  935  289 TIP3 OH2   -3.15583  -9.79361 -13.01771 WT00 289    0.00000
  936  289 TIP3 H1    -3.15397  -9.41105 -13.91192 WT00 289    0.00000
  937  289 TIP3 H2    -3.26765  -8.99069 -12.48159 WT00 289    0.00000
  938  290 TIP3 OH2    1.75435 -11.00981 -12.98886 WT00 290    0.00000
  939  290 TIP3 H1     1.06091 -10.78294 -12.33580 WT00 290    0.00000
  940  290 TIP3 H2     1.51265 -11.94000 -13.17182 WT00 290    0.00000
  941  291 TIP3 OH2   -4.00304 -12.37064 -13.61387 WT00 291    0.00000
  942  291 TIP3 H1    -3.68094 -12.60707 -14.50047 WT00 291    0.00000
  943  291 TIP3 H2    -3.54219 -11.52294 -13.45148 WT00 291    0.00000
  944  292 TIP3 OH2   -2.93660 -12.76271 -16.29874 WT00 292    0.00000
  945  292 TIP3 H1    -3.80479 -13.05273 -16.67123 WT00 292    0.00000
  946  292 TIP3 H2    -2.63977 -12.16996 -17.01202 WT00 292    0.00000
  947  293 TIP3 OH2    7.14094 -10.85520 -15.09317 WT00 293    0.00000
  948  293 TIP3 H1     7.59632 -11.57334 -15.55485 WT00 293    0.00000
  949  293 TIP3 H2     6.19907 -11.09509 -15.17231 WT00 293    0.00000
  950  294 TIP3 OH2   -5.86712 -15.59833  -9.34849 WT00 294    0.00000
  951  294 TIP3 H1    -5.25014 -15.47587 -10.08565 WT00 294    0.00000
  952  294 TIP3 H2    -5.62079 -16.48218  -9.03637 WT00 294    0.00000
  953  295 TIP3 OH2   -6.36020 -10.86557 -13.62828 WT00 295    0.00000
  954  295 TIP3 H1    -5.57923 -11.45289 -13.62589 WT00 295    0.00000
  955  295 TIP3 H2    -7.07014 -11.49646 -13.40430 WT00 295    0.00000
  956  296 TIP3 OH2    4.59911 -13.01410   5.25528 WT00 296    0.00000
  957  296 TIP3 H1     4.68687 -13.50337   4.42270 WT00 296    0.00000
  958  296 TIP3 H2     4.31654 -12.14219   4.91406 WT00 296    0.00000
  959  297 TIP3 OH2    1.14358 -12.27190  -1.10638 WT00 297    0.00000
  960  297 TIP3 H1     1.34297 -12.34389  -2.05756 WT00 297    0.00000
  961  297 TIP3 H2     0.51525 -13.00451  -0.99129 WT00 297    0.00000
  962  298 TIP3 OH2   -4.68495 -15.39509   4.36633 WT00 298    0.00000
  963  298 TIP3 H1    -3.91570 -15.86363   4.04249 WT00 298    0.00000
  964  298 TIP3 H2    -4.29343 -14.78607   5.01645 WT00 298    0.00000
  965  299 TIP3 OH2    5.74386 -15.70354  -8.12041 WT00 299    0.00000
  966  299 TIP3 H1     5.48897 -16.06403  -8.97971 WT00 299    0.00000
  967  299 TIP3 H2     5.08692 -16.13532  -7.53437 WT00 299    0.00000
  968  300 TIP3 OH2   -8.45578 -10.99756  -2.24759 WT00 300    0.00000
  969  300 TIP3 H1    -9.10387 -10.95230  -2.98278 WT00 300    0.00000
  970  300 TIP3 H2    -8.82883 -10.32804  -1.65218 WT00 300    0.00000
  971  301 TIP3 OH2   -4.48959 -11.20311  -9.09869 WT00 301    0.00000
  972  301 TIP3 H1    -5.28106 -11.48502  -9.60317 WT00 301    0.00000
  973  301 TIP3 H2    -4.81353 -10.36117  -8.72024 WT00 301    0.00000
  974  302 TIP3 OH2    4.07659 -10.27551   7.13853 WT00 302    0.00000
  975  302 TIP3 H1     4.57347  -9.60287   6.62044 WT00 302    0.00000
  976  302 TIP3 H2     3.30730 -10.44037   6.55613 WT00 302    0.00000
  977  303 TIP3 OH2   -0.38399 -16.15748   4.29447 WT00 303    0.00000
  978  303 TIP3 H1    -1.04276 -16.78540   3.98747 WT00 303    0.00000
  979  303 TIP3 H2     0.03158 -16.67319   5.01393 WT00 303    0.00000
  980  304 TIP3 OH2    6.98977 -12.75783   6.70312 WT00 304    0.00000
  981  304 TIP3 H1     7.26174 -11.83525   6.53472 WT00 304    0.00000
  982  304 TIP3 H2     6.15266 -12.80467   6.19917 WT00 304    0.00000
  983  305 TIP3 OH2    8.48847 -16.09349  -7.69361 WT00 305    0.00000
  984  305 TIP3 H1     7.53356 -15.94642  -7.53767 WT00 305    0.00000
  985  305 TIP3 H2     8.67476 -15.38223  -8.32283 WT00 305    0.00000
  986  306 TIP3 OH2   -6.90423 -11.91277   8.41279 WT00 306    0.00000
  987  306 TIP3 H1    -7.32185 -11.02556   8.52062 WT00 306    0.00000
  988  306 TIP3 H2    -7.23842 -12.39805   9.19682 WT00 306    0.00000
  989  307 TIP3 OH2    5.42344 -15.38088   0.35730 WT00 307    0.00000
  990  307 TIP3 H1     6.17724 -15.22968  -0.26155 WT00 307    0.00000
  991  307 TIP3 H2     5.27305 -16.32569   0.21575 WT00 307    0.00000
  992  308 TIP3 OH2   -0.11245 -10.18367   7.69255 WT00 308    0.00000
  993  308 TIP3 H1    -0.51748  -9.51810   8.30002 WT00 308    0.00000
  994  308 TIP3 H2    -0.90627 -10.74547   7.53262 WT00 308    0.00000
  995  309 TIP3 OH2   -0.76823 -10.49982  -3.66743 WT00 309    0.00000
  996  309 TIP3 H1    -0.58691 -10.10558  -4.53170 WT00 309    0.00000
  997  309 TIP3 H2    -0.26508 -11.33005  -3.71574 WT00 309    0.00000
  998  310 TIP3 OH2    4.35135 -12.06013  -6.32238 WT00 310    0.00000
  999  310 TIP3 H1     4.58972 -11.91220  -5.38231 WT00 310    0.00000
 1000  310 TIP3 H2     4.15857 -11.16735  -6.63683 WT00 310    0.00000
 1001  311 TIP3 OH2    1.63826 -15.28775  -0.24744 WT00 311    0.00000
 1002  311 TIP3 H1     1.97236 -16.11431  -0.64836 WT00 311    0.00000
 1003  311 TIP3 H2     1.85704 -15.43499   0.68705 WT00 311    0.00000
 1004  312 TIP3 OH2   -4.10731 -15.72444  -3.31993 WT00 312    0.00000
 1005  312 TIP3 H1    -4.49823 -16.28241  -4.01248 WT00 312    0.00000
 1006  312 TIP3 H2    -4.74967 -14.98379  -3.27952 WT00 312    0.00000
 1007  313 TIP3 OH2    0.43976 -12.26058  -6.23618 WT00 313    0.00000
 1008  313 TIP3 H1    -0.50688 -12.50930  -6.08998 WT00 313    0.00000
 1009  313 TIP3 H2     0.47253 -12.31342  -7.22149 WT00 313    0.00000
 1010  314 TIP3 OH2   -7.07520 -12.07810  -5.05288 WT00 314    0.00000
 1011  314 TIP3 H1    -6.52421 -11.27133  -5.17205 WT00 314    0.00000
 1012  314 TIP3 H2    -7.73876 -11.78945  -4.41099 WT00 314    0.00000
 1013  315 TIP3 OH2   -8.24466  -9.58085   8.13233 WT00 315    0.00000
 1014  315 TIP3 H1    -8.30605  -8.93210   7.40333 WT00 315    0.00000
 1015  315 TIP3 H2    -9.17715  -9.70218   8.35725 WT00 315    0.00000
 1016  316 TIP3 OH2    6.02904 -12.92926  -8.34413 WT00 316    0.00000
 1017  316 TIP3 H1     6.05693 -13.89662  -8.19356 WT00 316    0.00000
 1018  316 TIP3 H2     5.54972 -12.63999  -7.54014 WT00 316    0.00000
 1019  317 TIP3 OH2    7.47599 -13.86321  -5.25510 WT00 317    0.00000
 1020  317 TIP3 H1     7.08446 -14.71437  -5.03994 WT00 317    0.00000
 1021  317 TIP3 H2     8.23050 -13.83285  -4.63839 WT00 317    0.00000
 1022  318 TIP3 OH2   -6.58655 -11.74604   0.95233 WT00 318    0.00000
 1023  318 TIP3 H1    -6.21242 -12.34334   1.61438 WT00 318    0.00000
 1024  318 TIP3 H2    -6.95153 -11.03092   1.51434 WT00 318    0.00000
 1025  319 TIP3 OH2    4.27891 -10.97473   3.40544 WT00 319    0.00000
 1026  319 TIP3 H1     4.03072 -10.07282   3.15426 WT00 319    0.00000
 1027  319 TIP3 H2     3.80401 -11.50617   2.73243 WT00 319    0.00000
 1028  320 TIP3 OH2    4.57295  -9.78368  -8.84940 WT00 320    0.00000
 1029  320 TIP3 H1     3.62200  -9.56911  -8.74990 WT00 320    0.00000
 1030  320 TIP3 H2     4.58699  -9.96316  -9.81287 WT00 320    0.00000
 1031  321 TIP3 OH2   -1.32993 -15.77336   1.31404 WT00 321    0.00000
 1032  321 TIP3 H1    -2.24146 -15.74719   1.62911 WT00 321    0.00000
 1033  321 TIP3 H2    -1.18069 -16.71653   1.13535 WT00 321    0.00000
 1034  322 TIP3 OH2    4.50395 -15.44595   6.57269 WT00 322    0.00000
 1035  322 TIP3 H1     5.43655 -15.51655   6.28068 WT00 322    0.00000
 1036  322 TIP3 H2     4.42214 -14.46952   6.57416 WT00 322    0.00000
 1037  323 TIP3 OH2    1.48640 -14.18271   8.19579 WT00 323    0.00000
 1038  323 TIP3 H1     1.35129 -13.99419   7.23776 WT00 323    0.00000
 1039  323 TIP3 H2     2.39479 -13.81620   8.31477 WT00 323    0.00000
 1040  324 TIP3 OH2    8.93283 -14.10490   8.04117 WT00 324    0.00000
 1041  324 TIP3 H1     9.47382 -14.04061   7.23981 WT00 324    0.00000
 1042  324 TIP3 H2     8.06717 -13.82701   7.66465 WT00 324    0.00000
 1043  325 TIP3 OH2   -5.45314 -13.32844  -3.15746 WT00 325    0.00000
 1044  325 TIP3 H1    -5.50889 -12.51265  -2.63161 WT00 325    0.00000
 1045  325 TIP3 H2    -5.97751 -13.08230  -3.94428 WT00 325    0.00000
 1046  326 TIP3 OH2    3.24694  -9.74179  -3.27523 WT00 326    0.00000
 1047  326 TIP3 H1     4.03985 -10.31466  -3.27951 WT00 326    0.00000
 1048  326 TIP3 H2     3.06055  -9.69030  -2.31295 WT00 326    0.00000
 1049  327 TIP3 OH2   -7.24283 -14.52452   3.09145 WT00 327    0.00000
 1050  327 TIP3 H1    -7.98125 -14.24907   3.66608 WT00 327    0.00000
 1051  327 TIP3 H2    -6.52033 -14.69013   3.72460 WT00 327    0.00000
 1052  328 TIP3 OH2   -7.92259 -13.89865  -8.53004 WT00 328    0.00000
 1053  328 TIP3 H1    -7.20761 -14.55745  -8.66881 WT00 328    0.00000
 1054  328 TIP3 H2    -8.52852 -14.10802  -9.26818 WT00 328    0.00000
 1055  329 TIP3 OH2    8.62891 -10.51293  -4.52403 WT00 329    0.00000
 1056  329 TIP3 H1     7.89918  -9.87622  -4.41307 WT00 329    0.00000
 1057  329 TIP3 H2     8.31297 -11.04814  -5.26520 WT00 329    0.00000
 1058  330 TIP3 OH2    2.83579 -12.68512   1.68061 WT00 330    0.00000
 1059  330 TIP3 H1     2.88408 -12.92153   0.73995 WT00 330    0.00000
 1060  330 TIP3 H2     2.20751 -13.36708   2.01002 WT00 330    0.00000
 1061  331 TIP3 OH2   -4.66135 -13.20662  -7.00889 WT00 331    0.00000
 1062  331 TIP3 H1    -4.49859 -12.67535  -7.81001 WT00 331    0.00000
 1063  331 TIP3 H2    -5.45751 -12.78607  -6.65253 WT00 331    0.00000
 1064  332 TIP3 OH2   -5.48258 -15.93433  -6.25819 WT00 332    0.00000
 1065  332 TIP3 H1    -5.10434 -15.16633  -6.71693 WT00 332    0.00000
 1066  332 TIP3 H2    -6.38174 -15.63190  -6.06684 WT00 332    0.00000
 1067  333 TIP3 OH2   -8.00623 -10.89625  -7.59237 WT00 333    0.00000
 1068  333 TIP3 H1    -8.83890 -11.16372  -8.02651 WT00 333    0.00000
 1069  333 TIP3 H2    -7.87830 -11.60457  -6.93872 WT00 333    0.00000
 1070  334 TIP3 OH2    4.21526 -13.47600  -1.34350 WT00 334    0.00000
 1071  334 TIP3 H1     4.50847 -14.25640  -0.83697 WT00 334    0.00000
 1072  334 TIP3 H2     3.48701 -13.87842  -1.86579 WT00 334    0.00000
 1073  335 TIP3 OH2   -8.39564 -12.37559   6.16627 WT00 335    0.00000
 1074  335 TIP3 H1    -9.06817 -11.65394   6.16033 WT00 335    0.00000
 1075  335 TIP3 H2    -7.88519 -12.15030   6.97448 WT00 335    0.00000
 1076  336 TIP3 OH2   -4.00417 -14.55843   7.07845 WT00 336    0.00000
 1077  336 TIP3 H1    -3.88821 -13.62785   6.82067 WT00 336    0.00000
 1078  336 TIP3 H2    -3.20000 -14.71887   7.59835 WT00 336    0.00000
 1079  337 TIP3 OH2    8.87346 -14.09495   4.19737 WT00 337    0.00000
 1080  337 TIP3 H1     8.96053 -13.36062   4.82768 WT00 337    0.00000
 1081  337 TIP3 H2     8.21696 -14.65849   4.65821 WT00 337    0.00000
 1082  338 TIP3 OH2    8.25616 -11.48190  -9.03903 WT00 338    0.00000
 1083  338 TIP3 H1     7.42942 -11.96396  -8.80576 WT00 338    0.00000
 1084  338 TIP3 H2     8.58168 -12.07433  -9.73249 WT00 338    0.00000
 1085  339 TIP3 OH2    5.93666 -11.88737   0.22204 WT00 339    0.00000
 1086  339 TIP3 H1     6.53245 -12.46554   0.74595 WT00 339    0.00000
 1087  339 TIP3 H2     5.34408 -12.53188  -0.21394 WT00 339    0.00000
 1088  340 TIP3 OH2   -8.21136 -15.50470  -5.50185 WT00 340    0.00000
 1089  340 TIP3 H1    -8.03876 -16.46040  -5.60514 WT00 340    0.00000
 1090  340 TIP3 H2    -8.77131 -15.34118  -6.27924 WT00 340    0.00000
 1091  341 TIP3 OH2   -5.71393 -10.97687  -1.55840 WT00 341    0.00000
 1092  341 TIP3 H1    -5.90179 -11.28089  -0.64285 WT00 341    0.00000
 1093  341 TIP3 H2    -6.62871 -10.85224  -1.88496 WT00 341    0.00000
 1094  342 TIP3 OH2    0.96100 -14.59594   2.43054 WT00 342    0.00000
 1095  342 TIP3 H1     0.17145 -14.77676   1.88433 WT00 342    0.00000
 1096  342 TIP3 H2     0.65281 -15.01857   3.25509 WT00 342    0.00000
 1097  343 TIP3 OH2    0.86286 -13.75461   5.60310 WT00 343    0.00000
 1098  343 TIP3 H1     0.19252 -13.36611   4.99090 WT00 343    0.00000
 1099  343 TIP3 H2     1.12200 -14.55184   5.10656 WT00 343    0.00000
 1100  344 TIP3 OH2    0.43475 -12.16687  -8.89834 WT00 344    0.00000
 1101  344 TIP3 H1     0.84653 -12.84924  -9.46439 WT00 344    0.00000
 1102  344 TIP3 H2    -0.07469 -11.66357  -9.54870 WT00 344    0.00000
 1103  345 TIP3 OH2   -5.31184 -10.06829  -5.60154 WT00 345    0.00000
 1104  345 TIP3 H1    -4.93071  -9.38312  -5.01055 WT00 345    0.00000
 1105  345 TIP3 H2    -5.54967  -9.54822  -6.39171 WT00 345    0.00000
 1106  346 TIP3 OH2    6.84884  -9.54487  -7.42425 WT00 346    0.00000
 1107  346 TIP3 H1     7.49436 -10.06873  -7.93446 WT00 346    0.00000
 1108  346 TIP3 H2     6.02478  -9.77496  -7.91149 WT00 346    0.00000
 1109  347 TIP3 OH2   -0.81258 -14.43220  -1.10836 WT00 347    0.00000
 1110  347 TIP3 H1     0.05759 -14.84562  -0.90712 WT00 347    0.00000
 1111  347 TIP3 H2    -1.26862 -14.57970  -0.25892 WT00 347    0.00000
 1112  348 TIP3 OH2   -0.70777 -12.43433   3.83185 WT00 348    0.00000
 1113  348 TIP3 H1    -1.52232 -12.65836   3.35445 WT00 348    0.00000
 1114  348 TIP3 H2    -0.24532 -11.86595   3.18182 WT00 348    0.00000
 1115  349 TIP3 OH2    6.88596 -15.78403   5.23682 WT00 349    0.00000
 1116  349 TIP3 H1     7.13922 -16.71793   5.19399 WT00 349    0.00000
 1117  349 TIP3 H2     6.33445 -15.64705   4.43279 WT00 349    0.00000
 1118  350 TIP3 OH2    5.05623 -11.86413  -3.61142 WT00 350    0.00000
 1119  350 TIP3 H1     4.75052 -12.48535  -2.91855 WT00 350    0.00000
 1120  350 TIP3 H2     6.01196 -12.00472  -3.57053 WT00 350    0.00000
 1121  351 TIP3 OH2   -1.02036 -15.40052   8.02477 WT00 351    0.00000
 1122  351 TIP3 H1    -1.02757 -15.70939   7.11080 WT00 351    0.00000
 1123  351 TIP3 H2    -0.17745 -14.90851   8.05574 WT00 351    0.00000
 1124  352 TIP3 OH2    5.17991 -15.21520   3.16144 WT00 352    0.00000
 1125  352 TIP3 H1     4.24887 -15.47198   3.12547 WT00 352    0.00000
 1126  352 TIP3 H2     5.37450 -15.09715   2.20698 WT00 352    0.00000
 1127  353 TIP3 OH2   -1.77411 -14.44836  -3.70455 WT00 353    0.00000
 1128  353 TIP3 H1    -1.45308 -14.34692  -2.78548 WT00 353    0.00000
 1129  353 TIP3 H2    -2.61507 -14.94210  -3.56779 WT00 353    0.00000
 1130  354 TIP3 OH2    2.60040 -15.83452   4.60067 WT00 354    0.00000
 1131  354 TIP3 H1     3.18217 -15.45166   5.28352 WT00 354    0.00000
 1132  354 TIP3 H2     2.92963 -16.75220   4.58878 WT00 354    0.00000
 1133  355 TIP3 OH2    2.57677 -14.53952  -3.30588 WT00 355    0.00000
 1134  355 TIP3 H1     2.84335 -14.81657  -4.20161 WT00 355    0.00000
 1135  355 TIP3 H2     2.17120 -13.67697  -3.51101 WT00 355    0.00000
 1136  356 TIP3 OH2    0.59840  -9.53659  -6.24755 WT00 356    0.00000
 1137  356 TIP3 H1    -0.36027  -9.38955  -6.41606 WT00 356    0.00000
 1138  356 TIP3 H2     0.64644 -10.51316  -6.32350 WT00 356    0.00000
 1139  357 TIP3 OH2   -7.52862  -9.67634   2.64694 WT00 357    0.00000
 1140  357 TIP3 H1    -6.99363  -8.86349   2.76969 WT00 357    0.00000
 1141  357 TIP3 H2    -7.35575 -10.09480   3.51466 WT00 357    0.00000
 1142  358 TIP3 OH2    8.00433 -13.06338   1.70853 WT00 358    0.00000
 1143  358 TIP3 H1     8.36682 -13.52742   2.48836 WT00 358    0.00000
 1144  358 TIP3 H2     8.69611 -13.22883   1.03484 WT00 358    0.00000
 1145  359 TIP3 OH2   -1.81055 -11.22916   0.99029 WT00 359    0.00000
 1146  359 TIP3 H1    -1.91470 -11.11665   0.02019 WT00 359    0.00000
 1147  359 TIP3 H2    -0.85055 -11.07325   1.11681 WT00 359    0.00000
 1148  360 TIP3 OH2    2.41661  -9.92365  -0.62187 WT00 360    0.00000
 1149  360 TIP3 H1     1.63144  -9.37149  -0.82438 WT00 360    0.00000
 1150  360 TIP3 H2     2.00570 -10.81761  -0.66352 WT00 360    0.00000
 1151  361 TIP3 OH2   -6.89320 -15.23198   6.25393 WT00 361    0.00000
 1152  361 TIP3 H1    -5.92891 -15.34543   6.31930 WT00 361    0.00000
 1153  361 TIP3 H2    -6.97756 -14.30594   6.51250 WT00 361    0.00000
 1154  362 TIP3 OH2   -8.65439 -13.11680  -0.35236 WT00 362    0.00000
 1155  362 TIP3 H1    -7.82583 -12.85078   0.08709 WT00 362    0.00000
 1156  362 TIP3 H2    -8.69311 -12.45860  -1.06849 WT00 362    0.00000
 1157  363 TIP3 OH2   -0.14578 -15.51899  -7.38299 WT00 363    0.00000
 1158  363 TIP3 H1    -0.16191 -15.34654  -8.33392 WT00 363    0.00000
 1159  363 TIP3 H2    -0.62161 -14.75552  -7.03408 WT00 363    0.00000
 1160  364 TIP3 OH2    3.02138 -14.49733  -6.02952 WT00 364    0.00000
 1161  364 TIP3 H1     3.67549 -13.78672  -6.17541 WT00 364    0.00000
 1162  364 TIP3 H2     2.31380 -14.22583  -6.62216 WT00 364    0.00000
 1163  365 TIP3 OH2    7.34836 -15.17525  -1.56310 WT00 365    0.00000
 1164  365 TIP3 H1     7.88081 -14.56953  -2.10743 WT00 365    0.00000
 1165  365 TIP3 H2     7.89592 -15.96713  -1.60549 WT00 365    0.00000
 1166  366 TIP3 OH2   -9.27541 -14.15782  -3.22598 WT00 366    0.00000
 1167  366 TIP3 H1    -8.73523 -14.21468  -2.42009 WT00 366    0.00000
 1168  366 TIP3 H2    -8.70433 -14.62248  -3.87346 WT00 366    0.00000
 1169  367 TIP3 OH2    3.83891 -12.82285   8.49151 WT00 367    0.00000
 1170  367 TIP3 H1     4.62391 -12.81956   9.06971 WT00 367    0.00000
 1171  367 TIP3 H2     3.96013 -11.98502   8.00593 WT00 367    0.00000
 1172  368 TIP3 OH2    8.34364 -10.41633   6.02266 WT00 368    0.00000
 1173  368 TIP3 H1     7.88829 -10.49136   5.15024 WT00 368    0.00000
 1174  368 TIP3 H2     8.65865  -9.48943   5.99644 WT00 368    0.00000
 1175  369 TIP3 OH2    0.73806 -10.91485   1.94529 WT00 369    0.00000
 1176  369 TIP3 H1     1.00934  -9.99149   1.81717 WT00 369    0.00000
 1177  369 TIP3 H2     1.56241 -11.41085   1.77031 WT00 369    0.00000
 1178  370 TIP3 OH2   -2.44408 -11.55034   7.73820 WT00 370    0.00000
 1179  370 TIP3 H1    -2.84891 -10.99846   7.04024 WT00 370    0.00000
 1180  370 TIP3 H2    -3.10022 -11.46907   8.46261 WT00 370    0.00000
 1181  371 TIP3 OH2   -3.16289  -9.80856   5.68115 WT00 371    0.00000
 1182  371 TIP3 H1    -3.15391  -9.50494   4.74795 WT00 371    0.00000
 1183  371 TIP3 H2    -3.26038  -8.95838   6.13922 WT00 371    0.00000
 1184  372 TIP3 OH2    7.40424 -10.19018  -1.33912 WT00 372    0.00000
 1185  372 TIP3 H1     8.04884  -9.95575  -0.64066 WT00 372    0.00000
 1186  372 TIP3 H2     6.87008 -10.85939  -0.86202 WT00 372    0.00000
 1187  373 TIP3 OH2    1.76615 -10.97608   5.69975 WT00 373    0.00000
 1188  373 TIP3 H1     1.05586 -10.78945   6.34416 WT00 373    0.00000
 1189  373 TIP3 H2     1.53043 -11.88350   5.43213 WT00 373    0.00000
 1190  374 TIP3 OH2   -2.13492 -12.92373  -5.90633 WT00 374    0.00000
 1191  374 TIP3 H1    -2.12760 -13.45044  -5.07448 WT00 374    0.00000
 1192  374 TIP3 H2    -3.06453 -13.04015  -6.19864 WT00 374    0.00000
 1193  375 TIP3 OH2    1.67580 -12.01882  -3.84018 WT00 375    0.00000
 1194  375 TIP3 H1     1.41041 -12.12780  -4.78112 WT00 375    0.00000
 1195  375 TIP3 H2     2.21531 -11.20267  -3.86169 WT00 375    0.00000
 1196  376 TIP3 OH2   -3.97340 -14.31999   0.09805 WT00 376    0.00000
 1197  376 TIP3 H1    -4.03983 -14.19609  -0.85721 WT00 376    0.00000
 1198  376 TIP3 H2    -4.82932 -14.78091   0.27062 WT00 376    0.00000
 1199  377 TIP3 OH2   -4.06754 -12.38686   5.01763 WT00 377    0.00000
 1200  377 TIP3 H1    -3.77123 -12.62827   4.11330 WT00 377    0.00000
 1201  377 TIP3 H2    -3.55273 -11.57140   5.17984 WT00 377    0.00000
 1202  378 TIP3 OH2   -3.20379 -12.97583   2.43495 WT00 378    0.00000
 1203  378 TIP3 H1    -3.58346 -13.53060   1.72196 WT00 378    0.00000
 1204  378 TIP3 H2    -2.73725 -12.31899   1.86628 WT00 378    0.00000
 1205  379 TIP3 OH2    7.14023 -11.09942   3.67940 WT00 379    0.00000
 1206  379 TIP3 H1     7.42787 -11.63316   2.91698 WT00 379    0.00000
 1207  379 TIP3 H2     6.17781 -11.03795   3.52872 WT00 379    0.00000
 1208  380 TIP3 OH2   -2.10663  -9.30900  -6.53909 WT00 380    0.00000
 1209  380 TIP3 H1    -2.70779  -8.54616  -6.53940 WT00 380    0.00000
 1210  380 TIP3 H2    -2.69203 -10.00069  -6.18842 WT00 380    0.00000
 1211  381 TIP3 OH2    4.79984  -9.43297   0.79176 WT00 381    0.00000
 1212  381 TIP3 H1     3.96953  -9.48047   0.27407 WT00 381    0.00000
 1213  381 TIP3 H2     5.19739 -10.30456   0.58628 WT00 381    0.00000
 1214  382 TIP3 OH2   -5.87690 -15.60562   9.31081 WT00 382    0.00000
 1215  382 TIP3 H1    -5.23136 -15.47089   8.60048 WT00 382    0.00000
 1216  382 TIP3 H2    -5.63663 -16.49110   9.62311 WT00 382    0.00000
 1217  383 TIP3 OH2   -6.37413 -15.40300   0.62406 WT00 383    0.00000
 1218  383 TIP3 H1    -6.81816 -15.13838   1.45552 WT00 383    0.00000
 1219  383 TIP3 H2    -7.11572 -15.67223   0.04914 WT00 383    0.00000
 1220  384 TIP3 OH2   -6.42062 -10.86819   4.93184 WT00 384    0.00000
 1221  384 TIP3 H1    -5.60512 -11.40631   4.98892 WT00 384    0.00000
 1222  384 TIP3 H2    -7.08044 -11.48375   5.30025 WT00 384    0.00000
 1223  385 TIP3 OH2   -2.59059 -10.83982  -1.62703 WT00 385    0.00000
 1224  385 TIP3 H1    -3.42348 -11.23228  -1.92395 WT00 385    0.00000
 1225  385 TIP3 H2    -2.07949 -10.76750  -2.45885 WT00 385    0.00000
 1226  386 TIP3 OH2    5.76859 -15.69519  10.51520 WT00 386    0.00000
 1227  386 TIP3 H1     5.49704 -16.03853   9.65291 WT00 386    0.00000
 1228  386 TIP3 H2     5.02931 -15.99273  11.07686 WT00 386    0.00000
 1229  387 TIP3 OH2   -8.60424 -11.42242  16.06939 WT00 387    0.00000
 1230  387 TIP3 H1    -9.30629 -11.09043  15.47496 WT00 387    0.00000
 1231  387 TIP3 H2    -8.39921 -10.62282  16.60003 WT00 387    0.00000
 1232  388 TIP3 OH2   -4.49920 -11.20932   9.56729 WT00 388    0.00000
 1233  388 TIP3 H1    -5.28691 -11.48495   9.05518 WT00 388    0.00000
 1234  388 TIP3 H2    -4.81926 -10.36339   9.94049 WT00 388    0.00000
 1235  389 TIP3 OH2    8.48840 -16.07652  10.97183 WT00 389    0.00000
 1236  389 TIP3 H1     7.51997 -15.97645  11.07787 WT00 389    0.00000
 1237  389 TIP3 H2     8.66935 -15.37473  10.33075 WT00 389    0.00000
 1238  390 TIP3 OH2   -1.01538 -10.88137  15.10318 WT00 390    0.00000
 1239  390 TIP3 H1    -0.79325 -10.09256  14.59053 WT00 390    0.00000
 1240  390 TIP3 H2    -0.17609 -11.37590  15.03239 WT00 390    0.00000
 1241  391 TIP3 OH2    4.32151 -12.04801  12.31402 WT00 391    0.00000
 1242  391 TIP3 H1     4.55589 -11.82144  13.23567 WT00 391    0.00000
 1243  391 TIP3 H2     4.10934 -11.18648  11.93011 WT00 391    0.00000
 1244  392 TIP3 OH2   -4.14465 -15.75462  15.32956 WT00 392    0.00000
 1245  392 TIP3 H1    -4.46704 -16.28206  14.57833 WT00 392    0.00000
 1246  392 TIP3 H2    -4.85113 -15.09004  15.40998 WT00 392    0.00000
 1247  393 TIP3 OH2    0.45772 -12.32342  12.42169 WT00 393    0.00000
 1248  393 TIP3 H1    -0.49476 -12.52847  12.58824 WT00 393    0.00000
 1249  393 TIP3 H2     0.46156 -12.33328  11.43433 WT00 393    0.00000
 1250  394 TIP3 OH2   -7.16510 -12.06246  13.61476 WT00 394    0.00000
 1251  394 TIP3 H1    -6.60155 -11.26243  13.53673 WT00 394    0.00000
 1252  394 TIP3 H2    -7.71738 -11.86058  14.39450 WT00 394    0.00000
 1253  395 TIP3 OH2    6.04387 -12.92620  10.33277 WT00 395    0.00000
 1254  395 TIP3 H1     6.05952 -13.89592  10.46363 WT00 395    0.00000
 1255  395 TIP3 H2     5.55161 -12.64414  11.13082 WT00 395    0.00000
 1256  396 TIP3 OH2    7.31105 -13.78776  13.55345 WT00 396    0.00000
 1257  396 TIP3 H1     7.12302 -14.72873  13.49681 WT00 396    0.00000
 1258  396 TIP3 H2     8.12929 -13.81071  14.09709 WT00 396    0.00000
 1259  397 TIP3 OH2    4.57532  -9.78617   9.81598 WT00 397    0.00000
 1260  397 TIP3 H1     3.62463  -9.56495   9.91097 WT00 397    0.00000
 1261  397 TIP3 H2     4.58798  -9.96188   8.85046 WT00 397    0.00000
 1262  398 TIP3 OH2   -5.34949 -13.15898  15.45465 WT00 398    0.00000
 1263  398 TIP3 H1    -6.06251 -13.04074  16.10554 WT00 398    0.00000
 1264  398 TIP3 H2    -5.84579 -13.00824  14.62599 WT00 398    0.00000
 1265  399 TIP3 OH2    3.23418  -9.64345  15.24979 WT00 399    0.00000
 1266  399 TIP3 H1     4.02536 -10.20325  15.37970 WT00 399    0.00000
 1267  399 TIP3 H2     2.92528  -9.45748  16.14561 WT00 399    0.00000
 1268  400 TIP3 OH2   -7.93592 -13.88717  10.11667 WT00 400    0.00000
 1269  400 TIP3 H1    -7.22367 -14.55292  10.00934 WT00 400    0.00000
 1270  400 TIP3 H2    -8.53414 -14.11239   9.37837 WT00 400    0.00000
 1271  401 TIP3 OH2    8.39560 -10.47585  14.12902 WT00 401    0.00000
 1272  401 TIP3 H1     7.75307  -9.74490  14.04621 WT00 401    0.00000
 1273  401 TIP3 H2     8.19443 -11.02207  13.35721 WT00 401    0.00000
 1274  402 TIP3 OH2   -4.65793 -13.19509  11.66121 WT00 402    0.00000
 1275  402 TIP3 H1    -4.48264 -12.67715  10.85335 WT00 402    0.00000
 1276  402 TIP3 H2    -5.45883 -12.76377  11.99338 WT00 402    0.00000
 1277  403 TIP3 OH2   -5.44229 -15.92059  12.44820 WT00 403    0.00000
 1278  403 TIP3 H1    -5.10450 -15.16119  11.94635 WT00 403    0.00000
 1279  403 TIP3 H2    -6.36907 -15.66376  12.59564 WT00 403    0.00000
 1280  404 TIP3 OH2   -8.00513 -10.89692  11.07107 WT00 404    0.00000
 1281  404 TIP3 H1    -8.83657 -11.17993  10.64494 WT00 404    0.00000
 1282  404 TIP3 H2    -7.88335 -11.57598  11.75899 WT00 404    0.00000
 1283  405 TIP3 OH2    8.25590 -11.47740   9.62165 WT00 405    0.00000
 1284  405 TIP3 H1     7.42782 -11.95710   9.85522 WT00 405    0.00000
 1285  405 TIP3 H2     8.57702 -12.06694   8.92457 WT00 405    0.00000
 1286  406 TIP3 OH2   -8.11559 -15.53101  13.05861 WT00 406    0.00000
 1287  406 TIP3 H1    -8.01210 -16.50138  13.05279 WT00 406    0.00000
 1288  406 TIP3 H2    -8.74695 -15.41060  12.33001 WT00 406    0.00000
 1289  407 TIP3 OH2    0.42152 -12.17805   9.76355 WT00 407    0.00000
 1290  407 TIP3 H1     0.84443 -12.85074   9.19494 WT00 407    0.00000
 1291  407 TIP3 H2    -0.02150 -11.62571   9.10263 WT00 407    0.00000
 1292  408 TIP3 OH2   -5.31884 -10.10152  13.02827 WT00 408    0.00000
 1293  408 TIP3 H1    -5.01405  -9.38671  13.62737 WT00 408    0.00000
 1294  408 TIP3 H2    -5.57557  -9.59890  12.23239 WT00 408    0.00000
 1295  409 TIP3 OH2    6.84507  -9.56685  11.26132 WT00 409    0.00000
 1296  409 TIP3 H1     7.49324 -10.06986  10.73335 WT00 409    0.00000
 1297  409 TIP3 H2     6.02390  -9.78102  10.76188 WT00 409    0.00000
 1298  410 TIP3 OH2    5.05729 -11.89070  15.00106 WT00 410    0.00000
 1299  410 TIP3 H1     4.56712 -12.73188  15.14691 WT00 410    0.00000
 1300  410 TIP3 H2     5.95637 -12.22092  14.84381 WT00 410    0.00000
 1301  411 TIP3 OH2   -1.67074 -14.70518  14.99419 WT00 411    0.00000
 1302  411 TIP3 H1    -1.83605 -14.14317  15.76490 WT00 411    0.00000
 1303  411 TIP3 H2    -2.49413 -15.24670  15.00432 WT00 411    0.00000
 1304  412 TIP3 OH2    3.45213 -14.11549  15.30883 WT00 412    0.00000
 1305  412 TIP3 H1     3.21583 -14.73384  14.59629 WT00 412    0.00000
 1306  412 TIP3 H2     2.56868 -13.75777  15.52921 WT00 412    0.00000
 1307  413 TIP3 OH2    0.61229  -9.55938  12.41625 WT00 413    0.00000
 1308  413 TIP3 H1    -0.35458  -9.41107  12.31192 WT00 413    0.00000
 1309  413 TIP3 H2     0.64145 -10.53746  12.38608 WT00 413    0.00000
 1310  414 TIP3 OH2   -0.16412 -15.54105  11.29888 WT00 414    0.00000
 1311  414 TIP3 H1    -0.12869 -15.36039  10.34971 WT00 414    0.00000
 1312  414 TIP3 H2    -0.62997 -14.76244  11.62819 WT00 414    0.00000
 1313  415 TIP3 OH2    3.08321 -14.55570  12.37970 WT00 415    0.00000
 1314  415 TIP3 H1     3.68845 -13.79151  12.34531 WT00 415    0.00000
 1315  415 TIP3 H2     2.27757 -14.17205  12.02013 WT00 415    0.00000
 1316  416 TIP3 OH2   -9.32278 -14.29860  15.27739 WT00 416    0.00000
 1317  416 TIP3 H1    -8.78365 -13.93332  15.99946 WT00 416    0.00000
 1318  416 TIP3 H2    -8.64506 -14.68196  14.68775 WT00 416    0.00000
 1319  417 TIP3 OH2   -2.12298 -13.02262  12.77551 WT00 417    0.00000
 1320  417 TIP3 H1    -2.12917 -13.59847  13.56214 WT00 417    0.00000
 1321  417 TIP3 H2    -3.05561 -13.07868  12.47228 WT00 417    0.00000
 1322  418 TIP3 OH2    1.59867 -11.88174  14.83701 WT00 418    0.00000
 1323  418 TIP3 H1     1.36859 -12.17033  13.92707 WT00 418    0.00000
 1324  418 TIP3 H2     2.18185 -11.12008  14.67482 WT00 418    0.00000
 1325  419 TIP3 OH2   -2.10623  -9.29203  12.14667 WT00 419    0.00000
 1326  419 TIP3 H1    -2.72587  -8.54632  12.09608 WT00 419    0.00000
 1327  419 TIP3 H2    -2.68980 -10.00013  12.46363 WT00 419    0.00000
 1328  420 TIP3 OH2    4.61093   5.53157 -13.26721 WT00 420    0.00000
 1329  420 TIP3 H1     4.74498   4.98720 -14.07019 WT00 420    0.00000
 1330  420 TIP3 H2     4.30295   6.36819 -13.65736 WT00 420    0.00000
 1331  421 TIP3 OH2   -9.04534   1.31545 -15.08072 WT00 421    0.00000
 1332  421 TIP3 H1    -8.56856   0.97565 -15.85596 WT00 421    0.00000
 1333  421 TIP3 H2    -8.62764   2.18289 -15.00963 WT00 421    0.00000
 1334  422 TIP3 OH2   -4.52213   3.38417 -14.26036 WT00 422    0.00000
 1335  422 TIP3 H1    -3.89448   2.68090 -14.48794 WT00 422    0.00000
 1336  422 TIP3 H2    -4.11942   3.77134 -13.46893 WT00 422    0.00000
 1337  423 TIP3 OH2    5.60073  -8.20348 -12.72356 WT00 423    0.00000
 1338  423 TIP3 H1     6.36204  -7.90753 -13.25143 WT00 423    0.00000
 1339  423 TIP3 H2     5.55124  -7.48120 -12.06867 WT00 423    0.00000
 1340  424 TIP3 OH2    4.08461   8.39227 -11.52579 WT00 424    0.00000
 1341  424 TIP3 H1     4.58309   9.06882 -12.03620 WT00 424    0.00000
 1342  424 TIP3 H2     3.31265   8.22996 -12.09984 WT00 424    0.00000
 1343  425 TIP3 OH2   -0.48121   2.24186 -13.83489 WT00 425    0.00000
 1344  425 TIP3 H1    -1.30950   1.89268 -14.21961 WT00 425    0.00000
 1345  425 TIP3 H2     0.01718   1.41987 -13.71423 WT00 425    0.00000
 1346  426 TIP3 OH2    7.02824   5.89239 -11.93364 WT00 426    0.00000
 1347  426 TIP3 H1     7.26274   6.82197 -12.12051 WT00 426    0.00000
 1348  426 TIP3 H2     6.15070   5.81219 -12.35859 WT00 426    0.00000
 1349  427 TIP3 OH2   -6.84115   6.76737 -10.25017 WT00 427    0.00000
 1350  427 TIP3 H1    -7.30197   7.63236 -10.13685 WT00 427    0.00000
 1351  427 TIP3 H2    -7.22104   6.22556  -9.52240 WT00 427    0.00000
 1352  428 TIP3 OH2   -0.10247   8.50473 -11.00588 WT00 428    0.00000
 1353  428 TIP3 H1    -0.50303   9.15931 -10.38279 WT00 428    0.00000
 1354  428 TIP3 H2    -0.89495   7.93610 -11.14633 WT00 428    0.00000
 1355  429 TIP3 OH2    2.06817  -2.25034 -16.00498 WT00 429    0.00000
 1356  429 TIP3 H1     2.81041  -2.80007 -15.70263 WT00 429    0.00000
 1357  429 TIP3 H2     2.29068  -1.38883 -15.62509 WT00 429    0.00000
 1358  430 TIP3 OH2   -4.57145  -3.71012 -10.60645 WT00 430    0.00000
 1359  430 TIP3 H1    -5.05788  -3.81819  -9.77249 WT00 430    0.00000
 1360  430 TIP3 H2    -5.02575  -4.35833 -11.17884 WT00 430    0.00000
 1361  431 TIP3 OH2   -0.29333  -0.57271 -12.68753 WT00 431    0.00000
 1362  431 TIP3 H1    -0.18399  -1.54427 -12.75426 WT00 431    0.00000
 1363  431 TIP3 H2    -1.16951  -0.54677 -12.27365 WT00 431    0.00000
 1364  432 TIP3 OH2    4.92640  -0.90518  -9.58727 WT00 432    0.00000
 1365  432 TIP3 H1     4.23996  -1.57952  -9.38913 WT00 432    0.00000
 1366  432 TIP3 H2     4.78173  -0.77540 -10.53226 WT00 432    0.00000
 1367  433 TIP3 OH2   -9.22056  -2.90418 -15.41098 WT00 433    0.00000
 1368  433 TIP3 H1    -9.45819  -1.97072 -15.46024 WT00 433    0.00000
 1369  433 TIP3 H2    -9.66708  -3.22390 -16.21721 WT00 433    0.00000
 1370  434 TIP3 OH2   -8.25840   9.04496 -10.52311 WT00 434    0.00000
 1371  434 TIP3 H1    -8.29534   9.71766 -11.23418 WT00 434    0.00000
 1372  434 TIP3 H2    -9.19104   8.97249 -10.28087 WT00 434    0.00000
 1373  435 TIP3 OH2   -1.44092   0.39310  -9.69573 WT00 435    0.00000
 1374  435 TIP3 H1    -2.34277   0.42249  -9.31129 WT00 435    0.00000
 1375  435 TIP3 H2    -1.34777   1.30298 -10.03913 WT00 435    0.00000
 1376  436 TIP3 OH2    4.28833   7.68651 -15.08054 WT00 436    0.00000
 1377  436 TIP3 H1     3.99190   8.59658 -14.91994 WT00 436    0.00000
 1378  436 TIP3 H2     3.60660   7.31906 -15.65789 WT00 436    0.00000
 1379  437 TIP3 OH2   -2.88639   1.05324 -14.90593 WT00 437    0.00000
 1380  437 TIP3 H1    -2.81290   0.08663 -14.78402 WT00 437    0.00000
 1381  437 TIP3 H2    -3.58396   1.09303 -15.57639 WT00 437    0.00000
 1382  438 TIP3 OH2   -3.42966  -1.81574 -14.42046 WT00 438    0.00000
 1383  438 TIP3 H1    -4.38350  -1.61818 -14.50129 WT00 438    0.00000
 1384  438 TIP3 H2    -3.29429  -1.80355 -13.45154 WT00 438    0.00000
 1385  439 TIP3 OH2    4.24722   2.99037 -12.08849 WT00 439    0.00000
 1386  439 TIP3 H1     5.15752   2.74284 -12.34864 WT00 439    0.00000
 1387  439 TIP3 H2     4.32216   3.96502 -12.14052 WT00 439    0.00000
 1388  440 TIP3 OH2    1.47964   4.47878 -10.55870 WT00 440    0.00000
 1389  440 TIP3 H1     1.36995   4.65929 -11.52297 WT00 440    0.00000
 1390  440 TIP3 H2     2.35642   4.90985 -10.39895 WT00 440    0.00000
 1391  441 TIP3 OH2    6.62987  -4.22100 -15.46244 WT00 441    0.00000
 1392  441 TIP3 H1     5.79134  -4.00694 -15.00494 WT00 441    0.00000
 1393  441 TIP3 H2     7.26305  -3.64147 -15.01408 WT00 441    0.00000
 1394  442 TIP3 OH2    9.03841   4.52117 -10.72139 WT00 442    0.00000
 1395  442 TIP3 H1     9.56726   4.82583 -11.48033 WT00 442    0.00000
 1396  442 TIP3 H2     8.14295   4.77159 -11.03728 WT00 442    0.00000
 1397  443 TIP3 OH2    7.17098   0.32171 -14.47585 WT00 443    0.00000
 1398  443 TIP3 H1     6.66246   0.09473 -15.27646 WT00 443    0.00000
 1399  443 TIP3 H2     7.99707   0.67853 -14.88482 WT00 443    0.00000
 1400  444 TIP3 OH2    2.41001   1.81522 -10.43419 WT00 444    0.00000
 1401  444 TIP3 H1     3.20707   2.11839 -10.92130 WT00 444    0.00000
 1402  444 TIP3 H2     1.98939   2.68238 -10.28865 WT00 444    0.00000
 1403  445 TIP3 OH2   -6.92742  -3.63245 -14.10674 WT00 445    0.00000
 1404  445 TIP3 H1    -7.79917  -3.56306 -14.55859 WT00 445    0.00000
 1405  445 TIP3 H2    -6.58373  -2.73861 -14.30274 WT00 445    0.00000
 1406  446 TIP3 OH2   -4.86076  -5.14532 -15.76042 WT00 446    0.00000
 1407  446 TIP3 H1    -4.92671  -5.07957 -16.72518 WT00 446    0.00000
 1408  446 TIP3 H2    -5.43698  -4.41420 -15.47706 WT00 446    0.00000
 1409  447 TIP3 OH2   -7.14340   4.54813 -15.51170 WT00 447    0.00000
 1410  447 TIP3 H1    -7.98359   4.56930 -15.00951 WT00 447    0.00000
 1411  447 TIP3 H2    -6.57309   3.99706 -14.95025 WT00 447    0.00000
 1412  448 TIP3 OH2    7.31218   1.90262 -10.36917 WT00 448    0.00000
 1413  448 TIP3 H1     8.21655   1.56352 -10.50335 WT00 448    0.00000
 1414  448 TIP3 H2     7.08832   2.16700 -11.27715 WT00 448    0.00000
 1415  449 TIP3 OH2    3.47023  -2.95019 -12.01305 WT00 449    0.00000
 1416  449 TIP3 H1     3.00970  -2.08868 -12.09464 WT00 449    0.00000
 1417  449 TIP3 H2     3.25779  -3.14205 -11.07846 WT00 449    0.00000
 1418  450 TIP3 OH2   -3.70687  -7.36155 -10.65977 WT00 450    0.00000
 1419  450 TIP3 H1    -4.60552  -7.58211 -10.96592 WT00 450    0.00000
 1420  450 TIP3 H2    -3.84486  -7.08326  -9.73345 WT00 450    0.00000
 1421  451 TIP3 OH2    5.19274  -0.71494 -16.30597 WT00 451    0.00000
 1422  451 TIP3 H1     4.74628  -0.11362 -16.92705 WT00 451    0.00000
 1423  451 TIP3 H2     6.00250  -0.95266 -16.79541 WT00 451    0.00000
 1424  452 TIP3 OH2    8.27037  -0.77443 -12.19562 WT00 452    0.00000
 1425  452 TIP3 H1     9.16663  -0.52035 -12.47491 WT00 452    0.00000
 1426  452 TIP3 H2     7.75154  -0.50064 -12.98112 WT00 452    0.00000
 1427  453 TIP3 OH2    4.08881  -6.49206 -15.25598 WT00 453    0.00000
 1428  453 TIP3 H1     4.87834  -6.97809 -15.56072 WT00 453    0.00000
 1429  453 TIP3 H2     3.59019  -7.20000 -14.81780 WT00 453    0.00000
 1430  454 TIP3 OH2   -5.71879  -8.28811 -12.48608 WT00 454    0.00000
 1431  454 TIP3 H1    -5.98919  -9.22350 -12.48796 WT00 454    0.00000
 1432  454 TIP3 H2    -5.67963  -8.14583 -13.45641 WT00 454    0.00000
 1433  455 TIP3 OH2    4.00477  -3.75558 -14.64195 WT00 455    0.00000
 1434  455 TIP3 H1     3.78509  -3.61793 -13.69790 WT00 455    0.00000
 1435  455 TIP3 H2     3.89519  -4.72334 -14.75694 WT00 455    0.00000
 1436  456 TIP3 OH2   -8.41296   6.33794 -12.46076 WT00 456    0.00000
 1437  456 TIP3 H1    -9.06820   7.07199 -12.48906 WT00 456    0.00000
 1438  456 TIP3 H2    -7.85750   6.59624 -11.69452 WT00 456    0.00000
 1439  457 TIP3 OH2    7.58257  -6.66110 -14.25324 WT00 457    0.00000
 1440  457 TIP3 H1     7.38968  -5.71432 -14.36673 WT00 457    0.00000
 1441  457 TIP3 H2     7.36240  -6.97624 -15.14522 WT00 457    0.00000
 1442  458 TIP3 OH2   -3.98422   4.12295 -11.52526 WT00 458    0.00000
 1443  458 TIP3 H1    -3.95082   5.03761 -11.86101 WT00 458    0.00000
 1444  458 TIP3 H2    -3.14777   4.05515 -11.04581 WT00 458    0.00000
 1445  459 TIP3 OH2    8.91621   4.56800 -14.38319 WT00 459    0.00000
 1446  459 TIP3 H1     9.02767   5.28233 -13.73745 WT00 459    0.00000
 1447  459 TIP3 H2     8.30662   3.96650 -13.93255 WT00 459    0.00000
 1448  460 TIP3 OH2   -2.99864  -9.01169 -15.89320 WT00 460    0.00000
 1449  460 TIP3 H1    -2.64279  -9.83500 -16.26213 WT00 460    0.00000
 1450  460 TIP3 H2    -2.22340  -8.42881 -15.97008 WT00 460    0.00000
 1451  461 TIP3 OH2    0.94329   3.81721 -16.21196 WT00 461    0.00000
 1452  461 TIP3 H1     0.21175   3.23696 -16.43760 WT00 461    0.00000
 1453  461 TIP3 H2     1.39847   3.33557 -15.49747 WT00 461    0.00000
 1454  462 TIP3 OH2    0.88279   4.79946 -13.17334 WT00 462    0.00000
 1455  462 TIP3 H1     0.27340   5.28687 -13.77506 WT00 462    0.00000
 1456  462 TIP3 H2     0.77944   3.90300 -13.54320 WT00 462    0.00000
 1457  463 TIP3 OH2   -6.12718  -0.96612 -14.60957 WT00 463    0.00000
 1458  463 TIP3 H1    -6.64746  -0.68410 -13.82497 WT00 463    0.00000
 1459  463 TIP3 H2    -6.36214  -0.27047 -15.24533 WT00 463    0.00000
 1460  464 TIP3 OH2   -0.63551   6.30731 -14.81538 WT00 464    0.00000
 1461  464 TIP3 H1    -1.51681   6.09289 -15.17532 WT00 464    0.00000
 1462  464 TIP3 H2    -0.19746   6.65385 -15.60178 WT00 464    0.00000
 1463  465 TIP3 OH2    6.74970   2.68509 -13.20807 WT00 465    0.00000
 1464  465 TIP3 H1     6.97084   1.81723 -13.61587 WT00 465    0.00000
 1465  465 TIP3 H2     6.31795   3.12483 -13.97071 WT00 465    0.00000
 1466  466 TIP3 OH2   -0.90533   2.97254 -10.69652 WT00 466    0.00000
 1467  466 TIP3 H1    -0.95039   2.83699 -11.65766 WT00 466    0.00000
 1468  466 TIP3 H2    -0.11915   3.54823 -10.63186 WT00 466    0.00000
 1469  467 TIP3 OH2    5.18514   3.70841 -15.27434 WT00 467    0.00000
 1470  467 TIP3 H1     4.33392   3.23976 -15.33090 WT00 467    0.00000
 1471  467 TIP3 H2     5.54094   3.52699 -16.15695 WT00 467    0.00000
 1472  468 TIP3 OH2    2.36782  -0.43041 -12.05601 WT00 468    0.00000
 1473  468 TIP3 H1     2.35606   0.30364 -11.40771 WT00 468    0.00000
 1474  468 TIP3 H2     1.41348  -0.45338 -12.29359 WT00 468    0.00000
 1475  469 TIP3 OH2   -9.13919  -7.92431 -12.53167 WT00 469    0.00000
 1476  469 TIP3 H1    -9.28491  -7.60551 -13.43876 WT00 469    0.00000
 1477  469 TIP3 H2    -9.52217  -7.16731 -12.03710 WT00 469    0.00000
 1478  470 TIP3 OH2    2.38468  -8.74607 -14.39232 WT00 470    0.00000
 1479  470 TIP3 H1     1.92355  -8.19279 -13.72153 WT00 470    0.00000
 1480  470 TIP3 H2     2.15479  -9.62148 -14.00824 WT00 470    0.00000
 1481  471 TIP3 OH2    3.18289  -0.08204 -14.63981 WT00 471    0.00000
 1482  471 TIP3 H1     3.18043  -0.43790 -13.72914 WT00 471    0.00000
 1483  471 TIP3 H2     4.01057  -0.45482 -15.02680 WT00 471    0.00000
 1484  472 TIP3 OH2   -1.80561  -6.88966 -12.55034 WT00 472    0.00000
 1485  472 TIP3 H1    -2.48199  -6.92609 -11.83868 WT00 472    0.00000
 1486  472 TIP3 H2    -2.16091  -6.16994 -13.11739 WT00 472    0.00000
 1487  473 TIP3 OH2    2.62336   2.52038 -14.32510 WT00 473    0.00000
 1488  473 TIP3 H1     3.05893   2.76854 -13.48522 WT00 473    0.00000
 1489  473 TIP3 H2     2.73402   1.54442 -14.30062 WT00 473    0.00000
 1490  474 TIP3 OH2   -2.69255  -4.86010 -14.16392 WT00 474    0.00000
 1491  474 TIP3 H1    -3.37095  -5.19517 -14.78781 WT00 474    0.00000
 1492  474 TIP3 H2    -2.77948  -3.91110 -14.34061 WT00 474    0.00000
 1493  475 TIP3 OH2   -8.43683   1.73468 -10.63400 WT00 475    0.00000
 1494  475 TIP3 H1    -8.51572   2.58739 -11.09707 WT00 475    0.00000
 1495  475 TIP3 H2    -7.57517   1.87824 -10.18887 WT00 475    0.00000
 1496  476 TIP3 OH2   -5.41646  -7.77828 -15.12227 WT00 476    0.00000
 1497  476 TIP3 H1    -4.58024  -8.16718 -15.44055 WT00 476    0.00000
 1498  476 TIP3 H2    -5.33777  -6.84933 -15.43244 WT00 476    0.00000
 1499  477 TIP3 OH2   -7.77373   9.39239 -15.38668 WT00 477    0.00000
 1500  477 TIP3 H1    -7.14681  10.13157 -15.46346 WT00 477    0.00000
 1501  477 TIP3 H2    -7.29077   8.82630 -14.75338 WT00 477    0.00000
 1502  478 TIP3 OH2   -0.17721  -3.21107  -9.52528 WT00 478    0.00000
 1503  478 TIP3 H1    -0.01215  -3.27099 -10.48332 WT00 478    0.00000
 1504  478 TIP3 H2    -0.24430  -2.25727  -9.39642 WT00 478    0.00000
 1505  479 TIP3 OH2    6.25748  -4.24844 -12.31408 WT00 479    0.00000
 1506  479 TIP3 H1     5.59583  -3.54411 -12.27659 WT00 479    0.00000
 1507  479 TIP3 H2     5.83507  -4.92896 -11.74960 WT00 479    0.00000
 1508  480 TIP3 OH2   -6.92023   3.60345 -12.33277 WT00 480    0.00000
 1509  480 TIP3 H1    -6.00091   3.35382 -12.50704 WT00 480    0.00000
 1510  480 TIP3 H2    -6.84554   4.55301 -12.19653 WT00 480    0.00000
 1511  481 TIP3 OH2    3.78607   5.86391 -10.13931 WT00 481    0.00000
 1512  481 TIP3 H1     4.58407   5.80950  -9.58014 WT00 481    0.00000
 1513  481 TIP3 H2     3.97005   6.67671 -10.64441 WT00 481    0.00000
 1514  482 TIP3 OH2    5.22982  -6.22741 -10.70615 WT00 482    0.00000
 1515  482 TIP3 H1     5.52410  -6.36036  -9.78254 WT00 482    0.00000
 1516  482 TIP3 H2     4.27404  -6.43424 -10.61124 WT00 482    0.00000
 1517  483 TIP3 OH2    0.42560  -8.13924 -16.38181 WT00 483    0.00000
 1518  483 TIP3 H1     1.04647  -8.21777 -15.64201 WT00 483    0.00000
 1519  483 TIP3 H2     0.65219  -7.28523 -16.76941 WT00 483    0.00000
 1520  484 TIP3 OH2    8.29803   8.26431 -12.65861 WT00 484    0.00000
 1521  484 TIP3 H1     7.88405   8.26429 -13.54995 WT00 484    0.00000
 1522  484 TIP3 H2     8.70358   9.15820 -12.64865 WT00 484    0.00000
 1523  485 TIP3 OH2   -7.61804  -6.14535  -9.98599 WT00 485    0.00000
 1524  485 TIP3 H1    -8.47061  -6.04700 -10.45194 WT00 485    0.00000
 1525  485 TIP3 H2    -7.00503  -6.05126 -10.74493 WT00 485    0.00000
 1526  486 TIP3 OH2   -2.41748   7.11849 -10.89548 WT00 486    0.00000
 1527  486 TIP3 H1    -2.84867   7.61935 -11.61269 WT00 486    0.00000
 1528  486 TIP3 H2    -3.08079   7.19747 -10.17647 WT00 486    0.00000
 1529  487 TIP3 OH2   -3.14481   8.87029 -13.01554 WT00 487    0.00000
 1530  487 TIP3 H1    -3.16135   9.26037 -13.90626 WT00 487    0.00000
 1531  487 TIP3 H2    -3.32023   9.65464 -12.46926 WT00 487    0.00000
 1532  488 TIP3 OH2    1.75982   7.63871 -12.99788 WT00 488    0.00000
 1533  488 TIP3 H1     1.05466   7.84567 -12.35162 WT00 488    0.00000
 1534  488 TIP3 H2     1.53533   6.71389 -13.21431 WT00 488    0.00000
 1535  489 TIP3 OH2   -3.99845   6.28597 -13.53437 WT00 489    0.00000
 1536  489 TIP3 H1    -3.72881   6.00250 -14.42689 WT00 489    0.00000
 1537  489 TIP3 H2    -3.53844   7.14478 -13.44829 WT00 489    0.00000
 1538  490 TIP3 OH2   -2.96194   5.97690 -16.25698 WT00 490    0.00000
 1539  490 TIP3 H1    -3.81281   5.63993 -16.62207 WT00 490    0.00000
 1540  490 TIP3 H2    -2.64572   6.49953 -17.01482 WT00 490    0.00000
 1541  491 TIP3 OH2    7.14658   7.81873 -15.11455 WT00 491    0.00000
 1542  491 TIP3 H1     7.62565   7.09169 -15.53825 WT00 491    0.00000
 1543  491 TIP3 H2     6.21413   7.53634 -15.16552 WT00 491    0.00000
 1544  492 TIP3 OH2   -8.28361  -3.21354 -11.24330 WT00 492    0.00000
 1545  492 TIP3 H1    -7.75239  -3.71643 -11.87827 WT00 492    0.00000
 1546  492 TIP3 H2    -8.67130  -2.53325 -11.81060 WT00 492    0.00000
 1547  493 TIP3 OH2    0.74962  -7.81761 -12.36835 WT00 493    0.00000
 1548  493 TIP3 H1    -0.11272  -7.35377 -12.49828 WT00 493    0.00000
 1549  493 TIP3 H2     0.41682  -8.64614 -11.97604 WT00 493    0.00000
 1550  494 TIP3 OH2   -5.92613   2.47324  -9.56786 WT00 494    0.00000
 1551  494 TIP3 H1    -5.37817   3.04791 -10.12415 WT00 494    0.00000
 1552  494 TIP3 H2    -5.26248   1.87185  -9.18635 WT00 494    0.00000
 1553  495 TIP3 OH2   -2.91492  -1.76312 -11.67576 WT00 495    0.00000
 1554  495 TIP3 H1    -3.44705  -2.52311 -11.34199 WT00 495    0.00000
 1555  495 TIP3 H2    -2.81294  -1.25692 -10.86095 WT00 495    0.00000
 1556  496 TIP3 OH2   -7.54998  -0.37055 -12.31477 WT00 496    0.00000
 1557  496 TIP3 H1    -7.78233   0.51255 -11.96590 WT00 496    0.00000
 1558  496 TIP3 H2    -7.17342  -0.78129 -11.52326 WT00 496    0.00000
 1559  497 TIP3 OH2   -6.08780  -5.46956 -12.21025 WT00 497    0.00000
 1560  497 TIP3 H1    -6.29673  -4.95401 -13.02075 WT00 497    0.00000
 1561  497 TIP3 H2    -5.90663  -6.35823 -12.57016 WT00 497    0.00000
 1562  498 TIP3 OH2    8.49652  -5.76551 -11.22560 WT00 498    0.00000
 1563  498 TIP3 H1     8.22445  -5.20673 -10.47722 WT00 498    0.00000
 1564  498 TIP3 H2     7.92153  -5.39477 -11.92201 WT00 498    0.00000
 1565  499 TIP3 OH2    2.61717  -7.00282 -10.30755 WT00 499    0.00000
 1566  499 TIP3 H1     2.42152  -7.79432  -9.76604 WT00 499    0.00000
 1567  499 TIP3 H2     2.00807  -7.13895 -11.05879 WT00 499    0.00000
 1568  500 TIP3 OH2    0.09874  -3.31319 -12.44792 WT00 500    0.00000
 1569  500 TIP3 H1     0.78145  -3.68268 -13.02268 WT00 500    0.00000
 1570  500 TIP3 H2    -0.67746  -3.83986 -12.69156 WT00 500    0.00000
 1571  501 TIP3 OH2   -6.36233   7.79857 -13.62405 WT00 501    0.00000
 1572  501 TIP3 H1    -5.58539   7.20674 -13.62301 WT00 501    0.00000
 1573  501 TIP3 H2    -7.07959   7.16293 -13.44371 WT00 501    0.00000
 1574  502 TIP3 OH2    7.80927  -1.23879  -9.51627 WT00 502    0.00000
 1575  502 TIP3 H1     6.85537  -1.03675  -9.45158 WT00 502    0.00000
 1576  502 TIP3 H2     7.96123  -1.08079 -10.47705 WT00 502    0.00000
 1577  503 TIP3 OH2    2.46755  -6.68733   1.01023 WT00 503    0.00000
 1578  503 TIP3 H1     3.07062  -6.39747   1.71860 WT00 503    0.00000
 1579  503 TIP3 H2     2.87084  -6.31547   0.21110 WT00 503    0.00000
 1580  504 TIP3 OH2    4.61056   5.50863   5.31825 WT00 504    0.00000
 1581  504 TIP3 H1     4.67761   4.98756   4.49711 WT00 504    0.00000
 1582  504 TIP3 H2     4.30395   6.36461   4.96557 WT00 504    0.00000
 1583  505 TIP3 OH2   -8.23245  -0.46936   1.32396 WT00 505    0.00000
 1584  505 TIP3 H1    -7.87408  -1.09034   0.67224 WT00 505    0.00000
 1585  505 TIP3 H2    -8.55689   0.24192   0.73568 WT00 505    0.00000
 1586  506 TIP3 OH2   -4.76023  -0.89494  -4.80817 WT00 506    0.00000
 1587  506 TIP3 H1    -5.11237  -1.34407  -4.03000 WT00 506    0.00000
 1588  506 TIP3 H2    -4.58379  -1.64075  -5.39941 WT00 506    0.00000
 1589  507 TIP3 OH2   -2.66505  -2.64039  -6.36481 WT00 507    0.00000
 1590  507 TIP3 H1    -2.05933  -1.87706  -6.31396 WT00 507    0.00000
 1591  507 TIP3 H2    -2.13237  -3.29448  -6.85969 WT00 507    0.00000
 1592  508 TIP3 OH2    6.13010  -1.28563  -5.24147 WT00 508    0.00000
 1593  508 TIP3 H1     5.74722  -0.43314  -5.49086 WT00 508    0.00000
 1594  508 TIP3 H2     5.37298  -1.88083  -5.45257 WT00 508    0.00000
 1595  509 TIP3 OH2   -8.99460   1.37685   3.23566 WT00 509    0.00000
 1596  509 TIP3 H1    -8.59534   0.77312   2.57944 WT00 509    0.00000
 1597  509 TIP3 H2    -8.45672   2.17358   3.14039 WT00 509    0.00000
 1598  510 TIP3 OH2    1.12762   6.86507  -1.16958 WT00 510    0.00000
 1599  510 TIP3 H1     1.32624   6.61550  -2.09306 WT00 510    0.00000
 1600  510 TIP3 H2     0.46471   6.21784  -0.91146 WT00 510    0.00000
 1601  511 TIP3 OH2    8.89219  -1.68774  -5.60333 WT00 511    0.00000
 1602  511 TIP3 H1     7.91613  -1.59191  -5.57578 WT00 511    0.00000
 1603  511 TIP3 H2     9.13208  -1.15214  -6.38881 WT00 511    0.00000
 1604  512 TIP3 OH2   -6.53574  -4.03180  -8.42130 WT00 512    0.00000
 1605  512 TIP3 H1    -7.06967  -4.63448  -8.97755 WT00 512    0.00000
 1606  512 TIP3 H2    -7.14428  -3.87532  -7.66070 WT00 512    0.00000
 1607  513 TIP3 OH2   -4.65525   3.32616   4.38465 WT00 513    0.00000
 1608  513 TIP3 H1    -4.02474   2.61971   4.15570 WT00 513    0.00000
 1609  513 TIP3 H2    -4.13060   3.87179   4.98538 WT00 513    0.00000
 1610  514 TIP3 OH2    5.62916  -8.22550   5.98324 WT00 514    0.00000
 1611  514 TIP3 H1     6.34922  -7.95286   5.39687 WT00 514    0.00000
 1612  514 TIP3 H2     5.58418  -7.46879   6.59690 WT00 514    0.00000
 1613  515 TIP3 OH2    5.85896   3.04510  -8.28254 WT00 515    0.00000
 1614  515 TIP3 H1     6.22124   2.62240  -9.09021 WT00 515    0.00000
 1615  515 TIP3 H2     5.23972   2.35786  -7.97523 WT00 515    0.00000
 1616  516 TIP3 OH2   -8.46232   7.67111  -2.24296 WT00 516    0.00000
 1617  516 TIP3 H1    -9.10797   7.72248  -2.98076 WT00 516    0.00000
 1618  516 TIP3 H2    -8.81864   8.36119  -1.66035 WT00 516    0.00000
 1619  517 TIP3 OH2   -4.28931  -8.48323  -1.23535 WT00 517    0.00000
 1620  517 TIP3 H1    -3.46561  -8.78621  -0.81879 WT00 517    0.00000
 1621  517 TIP3 H2    -4.80478  -9.31332  -1.23032 WT00 517    0.00000
 1622  518 TIP3 OH2   -2.56602  -5.03066   0.45878 WT00 518    0.00000
 1623  518 TIP3 H1    -2.08497  -4.43436   1.04952 WT00 518    0.00000
 1624  518 TIP3 H2    -2.30499  -4.71028  -0.41682 WT00 518    0.00000
 1625  519 TIP3 OH2   -4.47836   7.44857  -9.07114 WT00 519    0.00000
 1626  519 TIP3 H1    -5.26503   7.18179  -9.59428 WT00 519    0.00000
 1627  519 TIP3 H2    -4.79668   8.30204  -8.71190 WT00 519    0.00000
 1628  520 TIP3 OH2    4.07350   8.39012   7.13184 WT00 520    0.00000
 1629  520 TIP3 H1     4.56426   9.06069   6.60669 WT00 520    0.00000
 1630  520 TIP3 H2     3.30894   8.20808   6.54932 WT00 520    0.00000
 1631  521 TIP3 OH2    5.58184  -4.51772   0.36210 WT00 521    0.00000
 1632  521 TIP3 H1     5.80469  -4.22358   1.26133 WT00 521    0.00000
 1633  521 TIP3 H2     6.13464  -5.31198   0.27727 WT00 521    0.00000
 1634  522 TIP3 OH2   -0.45708   2.30397   4.75400 WT00 522    0.00000
 1635  522 TIP3 H1    -1.27997   1.93590   4.37898 WT00 522    0.00000
 1636  522 TIP3 H2     0.09011   1.50739   4.80860 WT00 522    0.00000
 1637  523 TIP3 OH2    7.02087   5.87610   6.71656 WT00 523    0.00000
 1638  523 TIP3 H1     7.24315   6.80748   6.52822 WT00 523    0.00000
 1639  523 TIP3 H2     6.16625   5.77947   6.24936 WT00 523    0.00000
 1640  524 TIP3 OH2    8.62723   2.34835  -7.72717 WT00 524    0.00000
 1641  524 TIP3 H1     7.71932   2.55906  -7.44892 WT00 524    0.00000
 1642  524 TIP3 H2     8.52982   2.46773  -8.68735 WT00 524    0.00000
 1643  525 TIP3 OH2   -6.86303   6.76504   8.39453 WT00 525    0.00000
 1644  525 TIP3 H1    -7.31088   7.63333   8.52691 WT00 525    0.00000
 1645  525 TIP3 H2    -7.22360   6.22355   9.13345 WT00 525    0.00000
 1646  526 TIP3 OH2    7.87682   1.27359  -2.99641 WT00 526    0.00000
 1647  526 TIP3 H1     7.39779   1.20492  -3.84144 WT00 526    0.00000
 1648  526 TIP3 H2     8.59459   0.61644  -3.10360 WT00 526    0.00000
 1649  527 TIP3 OH2    8.74045  -3.83323  -9.08490 WT00 527    0.00000
 1650  527 TIP3 H1     8.34558  -2.93736  -9.07885 WT00 527    0.00000
 1651  527 TIP3 H2     9.41785  -3.69343  -9.78156 WT00 527    0.00000
 1652  528 TIP3 OH2    5.39466   3.21751   0.34283 WT00 528    0.00000
 1653  528 TIP3 H1     6.20682   3.39827  -0.18257 WT00 528    0.00000
 1654  528 TIP3 H2     5.37173   2.24287   0.24517 WT00 528    0.00000
 1655  529 TIP3 OH2   -8.90778  -0.25556  -7.81893 WT00 529    0.00000
 1656  529 TIP3 H1    -9.13424   0.69413  -7.82707 WT00 529    0.00000
 1657  529 TIP3 H2    -9.54374  -0.59685  -8.48544 WT00 529    0.00000
 1658  530 TIP3 OH2   -0.11233   8.49607   7.67665 WT00 530    0.00000
 1659  530 TIP3 H1    -0.51267   9.15313   8.29694 WT00 530    0.00000
 1660  530 TIP3 H2    -0.90461   7.92884   7.53009 WT00 530    0.00000
 1661  531 TIP3 OH2   -8.84760   1.91498  -0.12374 WT00 531    0.00000
 1662  531 TIP3 H1    -9.65794   2.40781  -0.33300 WT00 531    0.00000
 1663  531 TIP3 H2    -8.41667   1.85592  -1.00363 WT00 531    0.00000
 1664  532 TIP3 OH2   -0.75102   8.20063  -3.67257 WT00 532    0.00000
 1665  532 TIP3 H1    -0.62556   8.63573  -4.52836 WT00 532    0.00000
 1666  532 TIP3 H2    -0.29029   7.35870  -3.81000 WT00 532    0.00000
 1667  533 TIP3 OH2    2.76309  -2.61707  -9.31464 WT00 533    0.00000
 1668  533 TIP3 H1     2.13414  -1.87017  -9.19105 WT00 533    0.00000
 1669  533 TIP3 H2     2.27514  -3.34041  -8.87538 WT00 533    0.00000
 1670  534 TIP3 OH2    1.98340  -2.26450   2.96228 WT00 534    0.00000
 1671  534 TIP3 H1     2.79251  -2.77557   3.13209 WT00 534    0.00000
 1672  534 TIP3 H2     2.27966  -1.35426   3.10924 WT00 534    0.00000
 1673  535 TIP3 OH2   -4.57628  -3.70964   8.05422 WT00 535    0.00000
 1674  535 TIP3 H1    -5.05316  -3.81962   8.89345 WT00 535    0.00000
 1675  535 TIP3 H2    -5.03228  -4.35910   7.48601 WT00 535    0.00000
 1676  536 TIP3 OH2   -0.28541  -0.58189   5.98501 WT00 536    0.00000
 1677  536 TIP3 H1    -0.17623  -1.55353   5.92791 WT00 536    0.00000
 1678  536 TIP3 H2    -1.16589  -0.54698   6.38718 WT00 536    0.00000
 1679  537 TIP3 OH2    4.92970  -0.91024   9.06991 WT00 537    0.00000
 1680  537 TIP3 H1     4.24052  -1.58215   9.26822 WT00 537    0.00000
 1681  537 TIP3 H2     4.78070  -0.77693   8.12606 WT00 537    0.00000
 1682  538 TIP3 OH2    4.32129   6.55536  -6.30105 WT00 538    0.00000
 1683  538 TIP3 H1     4.57122   6.75142  -5.37424 WT00 538    0.00000
 1684  538 TIP3 H2     4.14863   7.43230  -6.66899 WT00 538    0.00000
 1685  539 TIP3 OH2    8.86733  -3.96715   1.01505 WT00 539    0.00000
 1686  539 TIP3 H1     8.27120  -4.68136   1.29005 WT00 539    0.00000
 1687  539 TIP3 H2     9.70481  -4.44967   0.84785 WT00 539    0.00000
 1688  540 TIP3 OH2   -8.03301  -3.78963  -6.12879 WT00 540    0.00000
 1689  540 TIP3 H1    -8.01069  -4.20032  -5.25700 WT00 540    0.00000
 1690  540 TIP3 H2    -8.66911  -3.06030  -5.96908 WT00 540    0.00000
 1691  541 TIP3 OH2   -4.55074   2.70549  -3.16294 WT00 541    0.00000
 1692  541 TIP3 H1    -4.35505   2.46119  -4.08067 WT00 541    0.00000
 1693  541 TIP3 H2    -4.85581   3.63849  -3.25539 WT00 541    0.00000
 1694  542 TIP3 OH2   -9.20136  -2.63036   3.32061 WT00 542    0.00000
 1695  542 TIP3 H1    -8.98773  -1.75834   2.95460 WT00 542    0.00000
 1696  542 TIP3 H2    -9.47152  -3.10192   2.50752 WT00 542    0.00000
 1697  543 TIP3 OH2    0.42857   6.38022  -6.23865 WT00 543    0.00000
 1698  543 TIP3 H1    -0.52181   6.13424  -6.11740 WT00 543    0.00000
 1699  543 TIP3 H2     0.48241   6.31525  -7.22273 WT00 543    0.00000
 1700  544 TIP3 OH2   -7.04622   6.55382  -5.01381 WT00 544    0.00000
 1701  544 TIP3 H1    -6.52792   7.37537  -5.17499 WT00 544    0.00000
 1702  544 TIP3 H2    -7.76072   6.86870  -4.44200 WT00 544    0.00000
 1703  545 TIP3 OH2   -8.25134   9.07406   8.12932 WT00 545    0.00000
 1704  545 TIP3 H1    -8.31336   9.71995   7.39844 WT00 545    0.00000
 1705  545 TIP3 H2    -9.18236   8.95791   8.36391 WT00 545    0.00000
 1706  546 TIP3 OH2   -1.43930   0.39167   8.96996 WT00 546    0.00000
 1707  546 TIP3 H1    -2.34104   0.42830   9.35349 WT00 546    0.00000
 1708  546 TIP3 H2    -1.34073   1.29988   8.62338 WT00 546    0.00000
 1709  547 TIP3 OH2    6.02990   5.78041  -8.34955 WT00 547    0.00000
 1710  547 TIP3 H1     6.05978   4.79948  -8.28166 WT00 547    0.00000
 1711  547 TIP3 H2     5.55517   6.00282  -7.52472 WT00 547    0.00000
 1712  548 TIP3 OH2   -2.07109  -7.60864   1.19238 WT00 548    0.00000
 1713  548 TIP3 H1    -1.15750  -7.63802   1.55723 WT00 548    0.00000
 1714  548 TIP3 H2    -2.19265  -6.66141   0.98466 WT00 548    0.00000
 1715  549 TIP3 OH2    7.36108   4.72480  -5.11824 WT00 549    0.00000
 1716  549 TIP3 H1     7.26164   3.76557  -5.17305 WT00 549    0.00000
 1717  549 TIP3 H2     8.16168   4.80672  -4.56808 WT00 549    0.00000
 1718  550 TIP3 OH2   -4.07972  -8.22495  -3.97808 WT00 550    0.00000
 1719  550 TIP3 H1    -4.07975  -8.42947  -3.02427 WT00 550    0.00000
 1720  550 TIP3 H2    -3.58558  -7.37911  -3.94957 WT00 550    0.00000
 1721  551 TIP3 OH2   -6.62471   6.89425   0.95462 WT00 551    0.00000
 1722  551 TIP3 H1    -6.22067   6.32381   1.62388 WT00 551    0.00000
 1723  551 TIP3 H2    -6.98175   7.61884   1.51011 WT00 551    0.00000
 1724  552 TIP3 OH2   -4.39016  -4.09017  -4.80241 WT00 552    0.00000
 1725  552 TIP3 H1    -4.81488  -4.71849  -5.42408 WT00 552    0.00000
 1726  552 TIP3 H2    -3.77607  -3.60538  -5.39807 WT00 552    0.00000
 1727  553 TIP3 OH2    4.29280   7.65916   3.45226 WT00 553    0.00000
 1728  553 TIP3 H1     4.06474   8.55865   3.17844 WT00 553    0.00000
 1729  553 TIP3 H2     3.80716   7.12257   2.79029 WT00 553    0.00000
 1730  554 TIP3 OH2   -4.01848   0.43755  -8.67229 WT00 554    0.00000
 1731  554 TIP3 H1    -3.97046   0.42537  -7.70785 WT00 554    0.00000
 1732  554 TIP3 H2    -4.79367  -0.15652  -8.81469 WT00 554    0.00000
 1733  555 TIP3 OH2   -1.12491  -8.50010  -9.13047 WT00 555    0.00000
 1734  555 TIP3 H1    -1.78951  -7.82511  -9.34755 WT00 555    0.00000
 1735  555 TIP3 H2    -1.40284  -8.72632  -8.22603 WT00 555    0.00000
 1736  556 TIP3 OH2   -2.97798   1.06235   3.74980 WT00 556    0.00000
 1737  556 TIP3 H1    -2.80231   0.11094   3.83316 WT00 556    0.00000
 1738  556 TIP3 H2    -3.71355   1.03918   3.09832 WT00 556    0.00000
 1739  557 TIP3 OH2    4.57515   8.89406  -8.84260 WT00 557    0.00000
 1740  557 TIP3 H1     3.62090   9.09760  -8.74991 WT00 557    0.00000
 1741  557 TIP3 H2     4.59245   8.69495  -9.80238 WT00 557    0.00000
 1742  558 TIP3 OH2   -3.41233  -1.94696   4.23269 WT00 558    0.00000
 1743  558 TIP3 H1    -4.34377  -1.66460   4.14006 WT00 558    0.00000
 1744  558 TIP3 H2    -3.25763  -1.83114   5.19194 WT00 558    0.00000
 1745  559 TIP3 OH2    7.47889  -6.65041  -0.09615 WT00 559    0.00000
 1746  559 TIP3 H1     8.26225  -6.32706  -0.59412 WT00 559    0.00000
 1747  559 TIP3 H2     6.99178  -7.07354  -0.84021 WT00 559    0.00000
 1748  560 TIP3 OH2   -0.04123  -5.62621  -4.45495 WT00 560    0.00000
 1749  560 TIP3 H1     0.70776  -6.24154  -4.40488 WT00 560    0.00000
 1750  560 TIP3 H2     0.41451  -4.77369  -4.60111 WT00 560    0.00000
 1751  561 TIP3 OH2   -9.13579  -5.74105  -1.72284 WT00 561    0.00000
 1752  561 TIP3 H1    -9.58852  -5.45910  -2.54958 WT00 561    0.00000
 1753  561 TIP3 H2    -8.37575  -6.24212  -2.10369 WT00 561    0.00000
 1754  562 TIP3 OH2   -4.96020  -5.72798  -0.59556 WT00 562    0.00000
 1755  562 TIP3 H1    -4.15829  -5.46861  -0.09494 WT00 562    0.00000
 1756  562 TIP3 H2    -4.72682  -6.64609  -0.83841 WT00 562    0.00000
 1757  563 TIP3 OH2   -4.77005   1.09534  -0.85338 WT00 563    0.00000
 1758  563 TIP3 H1    -5.71375   1.28490  -0.96068 WT00 563    0.00000
 1759  563 TIP3 H2    -4.41263   1.57844  -1.61893 WT00 563    0.00000
 1760  564 TIP3 OH2    4.27797   2.97861   6.57913 WT00 564    0.00000
 1761  564 TIP3 H1     5.18501   2.75888   6.28639 WT00 564    0.00000
 1762  564 TIP3 H2     4.31288   3.95310   6.49287 WT00 564    0.00000
 1763  565 TIP3 OH2    7.81060  -5.42507  -6.81755 WT00 565    0.00000
 1764  565 TIP3 H1     8.07784  -4.73648  -7.46019 WT00 565    0.00000
 1765  565 TIP3 H2     7.03446  -5.80984  -7.27758 WT00 565    0.00000
 1766  566 TIP3 OH2    1.48262   4.47140   8.10111 WT00 566    0.00000
 1767  566 TIP3 H1     1.37044   4.65447   7.13707 WT00 566    0.00000
 1768  566 TIP3 H2     2.35747   4.90606   8.25947 WT00 566    0.00000
 1769  567 TIP3 OH2    2.14237  -7.56923  -4.54082 WT00 567    0.00000
 1770  567 TIP3 H1     1.58031  -8.13315  -5.10433 WT00 567    0.00000
 1771  567 TIP3 H2     2.63741  -8.27102  -4.05777 WT00 567    0.00000
 1772  568 TIP3 OH2    6.68679  -4.21124   3.08393 WT00 568    0.00000
 1773  568 TIP3 H1     5.80633  -4.03943   3.48230 WT00 568    0.00000
 1774  568 TIP3 H2     7.21326  -3.50736   3.49032 WT00 568    0.00000
 1775  569 TIP3 OH2    9.04629   4.49814   7.91046 WT00 569    0.00000
 1776  569 TIP3 H1     9.56267   4.81389   7.14803 WT00 569    0.00000
 1777  569 TIP3 H2     8.14542   4.75736   7.61630 WT00 569    0.00000
 1778  570 TIP3 OH2   -5.37487   5.32061  -3.19254 WT00 570    0.00000
 1779  570 TIP3 H1    -5.44542   6.11166  -2.62898 WT00 570    0.00000
 1780  570 TIP3 H2    -5.92721   5.59872  -3.95252 WT00 570    0.00000
 1781  571 TIP3 OH2   -1.05057  -0.23822  -6.13315 WT00 571    0.00000
 1782  571 TIP3 H1    -1.74444   0.43853  -5.97172 WT00 571    0.00000
 1783  571 TIP3 H2    -0.39069   0.25974  -6.63659 WT00 571    0.00000
 1784  572 TIP3 OH2    3.23639   8.91347  -3.26634 WT00 572    0.00000
 1785  572 TIP3 H1     4.03893   8.35293  -3.27532 WT00 572    0.00000
 1786  572 TIP3 H2     3.09675   9.03226  -2.30342 WT00 572    0.00000
 1787  573 TIP3 OH2    7.28619   0.35402   4.11952 WT00 573    0.00000
 1788  573 TIP3 H1     6.79403  -0.07436   3.38793 WT00 573    0.00000
 1789  573 TIP3 H2     8.09923   0.68139   3.66803 WT00 573    0.00000
 1790  574 TIP3 OH2    2.42141   1.80091   8.20266 WT00 574    0.00000
 1791  574 TIP3 H1     3.21912   2.11826   7.72553 WT00 574    0.00000
 1792  574 TIP3 H2     1.99035   2.66180   8.35534 WT00 574    0.00000
 1793  575 TIP3 OH2   -6.94367  -3.66115   4.48979 WT00 575    0.00000
 1794  575 TIP3 H1    -7.85142  -3.48445   4.15638 WT00 575    0.00000
 1795  575 TIP3 H2    -6.57499  -2.75496   4.40596 WT00 575    0.00000
 1796  576 TIP3 OH2   -9.35509  -9.38916   0.48713 WT00 576    0.00000
 1797  576 TIP3 H1    -9.73993  -8.55420   0.77997 WT00 576    0.00000
 1798  576 TIP3 H2    -8.72176  -9.56376   1.21396 WT00 576    0.00000
 1799  577 TIP3 OH2   -5.24381  -4.96430   2.61353 WT00 577    0.00000
 1800  577 TIP3 H1    -5.63632  -4.73764   1.75717 WT00 577    0.00000
 1801  577 TIP3 H2    -5.78379  -4.41726   3.21643 WT00 577    0.00000
 1802  578 TIP3 OH2    5.35671  -5.31827  -3.74707 WT00 578    0.00000
 1803  578 TIP3 H1     5.06946  -4.53022  -3.23439 WT00 578    0.00000
 1804  578 TIP3 H2     5.30360  -6.00996  -3.06530 WT00 578    0.00000
 1805  579 TIP3 OH2   -7.21043   4.14434   3.10583 WT00 579    0.00000
 1806  579 TIP3 H1    -7.98162   4.36999   3.66206 WT00 579    0.00000
 1807  579 TIP3 H2    -6.52435   3.92765   3.76785 WT00 579    0.00000
 1808  580 TIP3 OH2   -7.43454  -5.09384   0.32112 WT00 580    0.00000
 1809  580 TIP3 H1    -7.98299  -5.38671  -0.43502 WT00 580    0.00000
 1810  580 TIP3 H2    -6.55064  -5.37321  -0.00167 WT00 580    0.00000
 1811  581 TIP3 OH2    7.31973   1.89501   8.29582 WT00 581    0.00000
 1812  581 TIP3 H1     8.21531   1.54174   8.14286 WT00 581    0.00000
 1813  581 TIP3 H2     7.07727   2.15944   7.39433 WT00 581    0.00000
 1814  582 TIP3 OH2   -7.91937   4.85486  -8.58076 WT00 582    0.00000
 1815  582 TIP3 H1    -7.50834   4.00730  -8.36782 WT00 582    0.00000
 1816  582 TIP3 H2    -8.60017   4.58374  -9.23110 WT00 582    0.00000
 1817  583 TIP3 OH2    8.61472   8.14029  -4.51627 WT00 583    0.00000
 1818  583 TIP3 H1     7.89874   8.79421  -4.41350 WT00 583    0.00000
 1819  583 TIP3 H2     8.32195   7.65108  -5.29737 WT00 583    0.00000
 1820  584 TIP3 OH2    7.00784  -8.15289  -5.02131 WT00 584    0.00000
 1821  584 TIP3 H1     6.95894  -8.57722  -5.90464 WT00 584    0.00000
 1822  584 TIP3 H2     7.18739  -7.23075  -5.25543 WT00 584    0.00000
 1823  585 TIP3 OH2    2.86067   6.04888   1.69325 WT00 585    0.00000
 1824  585 TIP3 H1     3.09251   5.73275   0.80856 WT00 585    0.00000
 1825  585 TIP3 H2     2.35018   5.27444   2.03592 WT00 585    0.00000
 1826  586 TIP3 OH2    3.48022  -2.92577   6.63652 WT00 586    0.00000
 1827  586 TIP3 H1     3.01026  -2.07380   6.52434 WT00 586    0.00000
 1828  586 TIP3 H2     3.24712  -3.11237   7.56729 WT00 586    0.00000
 1829  587 TIP3 OH2   -3.71179  -7.34912   7.98246 WT00 587    0.00000
 1830  587 TIP3 H1    -4.61848  -7.54718   7.69690 WT00 587    0.00000
 1831  587 TIP3 H2    -3.82239  -7.07651   8.91452 WT00 587    0.00000
 1832  588 TIP3 OH2   -0.12360  -1.22648  -3.72525 WT00 588    0.00000
 1833  588 TIP3 H1    -0.57666  -0.79550  -4.47675 WT00 588    0.00000
 1834  588 TIP3 H2    -0.16761  -0.55957  -3.03163 WT00 588    0.00000
 1835  589 TIP3 OH2    5.85059   0.54950  -0.38725 WT00 589    0.00000
 1836  589 TIP3 H1     6.16458   0.68303  -1.29167 WT00 589    0.00000
 1837  589 TIP3 H2     6.36271  -0.24710  -0.14715 WT00 589    0.00000
 1838  590 TIP3 OH2   -8.22939  -8.25866  -4.72113 WT00 590    0.00000
 1839  590 TIP3 H1    -8.34651  -7.85445  -5.60478 WT00 590    0.00000
 1840  590 TIP3 H2    -8.84207  -9.01086  -4.75411 WT00 590    0.00000
 1841  591 TIP3 OH2   -4.71009   5.43594  -7.05023 WT00 591    0.00000
 1842  591 TIP3 H1    -4.50282   6.00525  -7.81765 WT00 591    0.00000
 1843  591 TIP3 H2    -5.45435   5.91711  -6.65706 WT00 591    0.00000
 1844  592 TIP3 OH2   -5.32512   2.74044  -6.34716 WT00 592    0.00000
 1845  592 TIP3 H1    -5.18275   3.62834  -6.73037 WT00 592    0.00000
 1846  592 TIP3 H2    -6.29496   2.73655  -6.20959 WT00 592    0.00000
 1847  593 TIP3 OH2    5.66962  -0.95151   2.25886 WT00 593    0.00000
 1848  593 TIP3 H1     5.02537  -0.55933   1.65398 WT00 593    0.00000
 1849  593 TIP3 H2     6.26055  -1.39976   1.61876 WT00 593    0.00000
 1850  594 TIP3 OH2    8.26934  -0.76063   6.46915 WT00 594    0.00000
 1851  594 TIP3 H1     9.17571  -0.54489   6.19030 WT00 594    0.00000
 1852  594 TIP3 H2     7.77132  -0.50806   5.66545 WT00 594    0.00000
 1853  595 TIP3 OH2    3.97556  -6.43295   3.38939 WT00 595    0.00000
 1854  595 TIP3 H1     4.81400  -6.82410   3.07101 WT00 595    0.00000
 1855  595 TIP3 H2     3.53321  -7.20999   3.78517 WT00 595    0.00000
 1856  596 TIP3 OH2   -5.70719  -8.20407   5.97627 WT00 596    0.00000
 1857  596 TIP3 H1    -5.93127  -9.14830   6.03337 WT00 596    0.00000
 1858  596 TIP3 H2    -5.75450  -8.09267   5.00462 WT00 596    0.00000
 1859  597 TIP3 OH2   -8.02789   7.78757  -7.56888 WT00 597    0.00000
 1860  597 TIP3 H1    -8.83995   7.53541  -8.05096 WT00 597    0.00000
 1861  597 TIP3 H2    -7.90284   7.02853  -6.97869 WT00 597    0.00000
 1862  598 TIP3 OH2    4.20814   5.17153  -1.23850 WT00 598    0.00000
 1863  598 TIP3 H1     4.51387   4.37734  -0.75361 WT00 598    0.00000
 1864  598 TIP3 H2     3.58467   4.76029  -1.87896 WT00 598    0.00000
 1865  599 TIP3 OH2    4.10607  -3.74158   4.03155 WT00 599    0.00000
 1866  599 TIP3 H1     3.83382  -3.60609   4.96228 WT00 599    0.00000
 1867  599 TIP3 H2     3.91633  -4.69555   3.88980 WT00 599    0.00000
 1868  600 TIP3 OH2   -8.40808   6.34547   6.16998 WT00 600    0.00000
 1869  600 TIP3 H1    -9.08682   7.05987   6.17602 WT00 600    0.00000
 1870  600 TIP3 H2    -7.88333   6.56322   6.96988 WT00 600    0.00000
 1871  601 TIP3 OH2    7.66275  -6.64836   4.35243 WT00 601    0.00000
 1872  601 TIP3 H1     7.42264  -5.71364   4.22415 WT00 601    0.00000
 1873  601 TIP3 H2     7.21989  -7.03958   3.57085 WT00 601    0.00000
 1874  602 TIP3 OH2    2.17107   1.54914  -6.75596 WT00 602    0.00000
 1875  602 TIP3 H1     2.62200   2.36286  -6.46026 WT00 602    0.00000
 1876  602 TIP3 H2     1.33453   1.92579  -7.09402 WT00 602    0.00000
 1877  603 TIP3 OH2    1.95362  -5.13370  -7.90907 WT00 603    0.00000
 1878  603 TIP3 H1     2.61729  -5.43932  -7.26447 WT00 603    0.00000
 1879  603 TIP3 H2     2.08058  -5.74740  -8.64912 WT00 603    0.00000
 1880  604 TIP3 OH2    1.16060  -3.16665  -5.12080 WT00 604    0.00000
 1881  604 TIP3 H1     0.72946  -2.53839  -4.49337 WT00 604    0.00000
 1882  604 TIP3 H2     0.91063  -2.77810  -5.96694 WT00 604    0.00000
 1883  605 TIP3 OH2   -4.03253   4.14659   7.21945 WT00 605    0.00000
 1884  605 TIP3 H1    -3.95915   5.02902   6.81636 WT00 605    0.00000
 1885  605 TIP3 H2    -3.15686   4.03266   7.61128 WT00 605    0.00000
 1886  606 TIP3 OH2    8.84499   4.61231   4.18413 WT00 606    0.00000
 1887  606 TIP3 H1     8.96275   5.30053   4.85922 WT00 606    0.00000
 1888  606 TIP3 H2     8.31753   3.95266   4.66381 WT00 606    0.00000
 1889  607 TIP3 OH2    8.26337   7.19475  -9.04156 WT00 607    0.00000
 1890  607 TIP3 H1     7.44122   6.70361  -8.80704 WT00 607    0.00000
 1891  607 TIP3 H2     8.56759   6.63641  -9.77045 WT00 607    0.00000
 1892  608 TIP3 OH2    5.94463   6.78423   0.24008 WT00 608    0.00000
 1893  608 TIP3 H1     6.54984   6.22176   0.77291 WT00 608    0.00000
 1894  608 TIP3 H2     5.36228   6.12475  -0.18669 WT00 608    0.00000
 1895  609 TIP3 OH2   -3.30743  -9.20881   2.94431 WT00 609    0.00000
 1896  609 TIP3 H1    -3.03700  -9.98700   2.43287 WT00 609    0.00000
 1897  609 TIP3 H2    -2.83963  -8.52343   2.41261 WT00 609    0.00000
 1898  610 TIP3 OH2   -5.96728  -3.76027  -2.52271 WT00 610    0.00000
 1899  610 TIP3 H1    -5.65807  -4.50152  -1.97052 WT00 610    0.00000
 1900  610 TIP3 H2    -5.44700  -3.90235  -3.33861 WT00 610    0.00000
 1901  611 TIP3 OH2   -8.07348   2.70416  -5.75674 WT00 611    0.00000
 1902  611 TIP3 H1    -8.31794   1.81349  -5.48273 WT00 611    0.00000
 1903  611 TIP3 H2    -8.74749   2.87600  -6.44396 WT00 611    0.00000
 1904  612 TIP3 OH2   -5.68646   7.64323  -1.55082 WT00 612    0.00000
 1905  612 TIP3 H1    -5.90030   7.35041  -0.63710 WT00 612    0.00000
 1906  612 TIP3 H2    -6.59018   7.80704  -1.88949 WT00 612    0.00000
 1907  613 TIP3 OH2    1.39675   3.89132   2.44987 WT00 613    0.00000
 1908  613 TIP3 H1     0.50818   3.51975   2.41187 WT00 613    0.00000
 1909  613 TIP3 H2     1.79537   3.34564   3.16349 WT00 613    0.00000
 1910  614 TIP3 OH2    0.87765   4.78426   5.48732 WT00 614    0.00000
 1911  614 TIP3 H1     0.27002   5.27209   4.88339 WT00 614    0.00000
 1912  614 TIP3 H2     0.75104   3.88335   5.13441 WT00 614    0.00000
 1913  615 TIP3 OH2   -6.08131  -1.07977   4.04130 WT00 615    0.00000
 1914  615 TIP3 H1    -6.63214  -0.65918   4.73599 WT00 615    0.00000
 1915  615 TIP3 H2    -6.10549  -0.41444   3.33041 WT00 615    0.00000
 1916  616 TIP3 OH2    0.44463   6.49298  -8.90569 WT00 616    0.00000
 1917  616 TIP3 H1     0.84267   5.80286  -9.46872 WT00 616    0.00000
 1918  616 TIP3 H2    -0.04762   7.01219  -9.55690 WT00 616    0.00000
 1919  617 TIP3 OH2    2.28348  -6.19502  -1.86046 WT00 617    0.00000
 1920  617 TIP3 H1     1.51933  -6.57727  -1.41266 WT00 617    0.00000
 1921  617 TIP3 H2     2.26088  -6.65053  -2.71210 WT00 617    0.00000
 1922  618 TIP3 OH2   -5.31164   8.57379  -5.61613 WT00 618    0.00000
 1923  618 TIP3 H1    -4.93539   9.25960  -5.02074 WT00 618    0.00000
 1924  618 TIP3 H2    -5.55298   9.10119  -6.40142 WT00 618    0.00000
 1925  619 TIP3 OH2    6.84994   9.09095  -7.40486 WT00 619    0.00000
 1926  619 TIP3 H1     7.49895   8.58505  -7.92963 WT00 619    0.00000
 1927  619 TIP3 H2     6.02907   8.87328  -7.90307 WT00 619    0.00000
 1928  620 TIP3 OH2    5.71976  -6.83121  -7.99211 WT00 620    0.00000
 1929  620 TIP3 H1     4.98003  -6.68770  -7.36852 WT00 620    0.00000
 1930  620 TIP3 H2     5.84499  -7.79553  -7.95503 WT00 620    0.00000
 1931  621 TIP3 OH2   -7.22604   1.72923  -2.32887 WT00 621    0.00000
 1932  621 TIP3 H1    -7.58138   0.95329  -2.81398 WT00 621    0.00000
 1933  621 TIP3 H2    -6.43602   1.96234  -2.84238 WT00 621    0.00000
 1934  622 TIP3 OH2   -0.67008   6.19569   3.79444 WT00 622    0.00000
 1935  622 TIP3 H1    -1.52171   5.99019   3.37325 WT00 622    0.00000
 1936  622 TIP3 H2    -0.25323   6.78792   3.13724 WT00 622    0.00000
 1937  623 TIP3 OH2    6.73664   2.69800   5.36935 WT00 623    0.00000
 1938  623 TIP3 H1     6.98207   1.82908   4.97935 WT00 623    0.00000
 1939  623 TIP3 H2     6.26558   3.09782   4.60709 WT00 623    0.00000
 1940  624 TIP3 OH2    5.07165   6.82167  -3.59993 WT00 624    0.00000
 1941  624 TIP3 H1     4.79342   6.19329  -2.90792 WT00 624    0.00000
 1942  624 TIP3 H2     6.02405   6.64989  -3.63311 WT00 624    0.00000
 1943  625 TIP3 OH2   -0.90693   2.96914   7.95838 WT00 625    0.00000
 1944  625 TIP3 H1    -0.94787   2.83256   6.99769 WT00 625    0.00000
 1945  625 TIP3 H2    -0.12325   3.54797   8.02559 WT00 625    0.00000
 1946  626 TIP3 OH2    5.09502   3.55737   3.23739 WT00 626    0.00000
 1947  626 TIP3 H1     4.22435   3.12419   3.28326 WT00 626    0.00000
 1948  626 TIP3 H2     5.27056   3.54299   2.27537 WT00 626    0.00000
 1949  627 TIP3 OH2   -3.26296   1.27248  -5.47473 WT00 627    0.00000
 1950  627 TIP3 H1    -3.77636   0.50676  -5.12457 WT00 627    0.00000
 1951  627 TIP3 H2    -3.98441   1.79727  -5.89055 WT00 627    0.00000
 1952  628 TIP3 OH2    2.40097  -0.37669   6.45369 WT00 628    0.00000
 1953  628 TIP3 H1     2.38233   0.32965   7.13150 WT00 628    0.00000
 1954  628 TIP3 H2     1.43933  -0.42493   6.24742 WT00 628    0.00000
 1955  629 TIP3 OH2    6.14796   1.89476  -5.23153 WT00 629    0.00000
 1956  629 TIP3 H1     5.46104   2.50015  -4.92871 WT00 629    0.00000
 1957  629 TIP3 H2     5.71198   1.49900  -6.01560 WT00 629    0.00000
 1958  630 TIP3 OH2   -9.17154  -7.90161   6.08667 WT00 630    0.00000
 1959  630 TIP3 H1    -9.45986  -7.53102   5.23136 WT00 630    0.00000
 1960  630 TIP3 H2    -9.50350  -7.18056   6.66371 WT00 630    0.00000
 1961  631 TIP3 OH2   -8.50606  -6.88535  -7.10427 WT00 631    0.00000
 1962  631 TIP3 H1    -9.26435  -6.29962  -6.90683 WT00 631    0.00000
 1963  631 TIP3 H2    -8.48599  -6.84598  -8.07248 WT00 631    0.00000
 1964  632 TIP3 OH2    1.91705  -9.15846  -8.72467 WT00 632    0.00000
 1965  632 TIP3 H1     1.47692  -9.14430  -7.85156 WT00 632    0.00000
 1966  632 TIP3 H2     1.24584  -9.61050  -9.25921 WT00 632    0.00000
 1967  633 TIP3 OH2    2.30984  -8.62302   4.27450 WT00 633    0.00000
 1968  633 TIP3 H1     1.82903  -8.17952   5.00620 WT00 633    0.00000
 1969  633 TIP3 H2     2.24341  -9.54836   4.58714 WT00 633    0.00000
 1970  634 TIP3 OH2   -3.30002  -6.67073  -7.93455 WT00 634    0.00000
 1971  634 TIP3 H1    -4.06167  -6.41534  -7.37501 WT00 634    0.00000
 1972  634 TIP3 H2    -2.66189  -5.94933  -7.75375 WT00 634    0.00000
 1973  635 TIP3 OH2   -6.29081  -1.08651  -8.73537 WT00 635    0.00000
 1974  635 TIP3 H1    -6.35846  -2.05683  -8.71658 WT00 635    0.00000
 1975  635 TIP3 H2    -7.15310  -0.81719  -8.36324 WT00 635    0.00000
 1976  636 TIP3 OH2    3.48873  -0.10346   3.91711 WT00 636    0.00000
 1977  636 TIP3 H1     3.30733  -0.39638   4.83315 WT00 636    0.00000
 1978  636 TIP3 H2     4.31710  -0.56357   3.68770 WT00 636    0.00000
 1979  637 TIP3 OH2   -2.02059   4.27113  -3.65789 WT00 637    0.00000
 1980  637 TIP3 H1    -1.80939   4.48107  -2.74437 WT00 637    0.00000
 1981  637 TIP3 H2    -2.50306   3.43700  -3.56761 WT00 637    0.00000
 1982  638 TIP3 OH2   -7.93704  -2.22967  -1.35528 WT00 638    0.00000
 1983  638 TIP3 H1    -8.43755  -2.96756  -0.98565 WT00 638    0.00000
 1984  638 TIP3 H2    -7.17526  -2.70862  -1.75390 WT00 638    0.00000
 1985  639 TIP3 OH2   -1.82791  -6.77124   6.07684 WT00 639    0.00000
 1986  639 TIP3 H1    -2.50508  -6.85606   6.78221 WT00 639    0.00000
 1987  639 TIP3 H2    -2.27484  -6.17135   5.44315 WT00 639    0.00000
 1988  640 TIP3 OH2    4.72450   0.69568  -7.27007 WT00 640    0.00000
 1989  640 TIP3 H1     4.78976   0.10431  -8.05082 WT00 640    0.00000
 1990  640 TIP3 H2     3.74952   0.72935  -7.13511 WT00 640    0.00000
 1991  641 TIP3 OH2    2.68524   2.45060   4.33617 WT00 641    0.00000
 1992  641 TIP3 H1     3.11454   2.60897   5.20022 WT00 641    0.00000
 1993  641 TIP3 H2     2.89867   1.50370   4.18046 WT00 641    0.00000
 1994  642 TIP3 OH2    2.67387   4.16165  -3.24497 WT00 642    0.00000
 1995  642 TIP3 H1     2.71283   3.69350  -4.09179 WT00 642    0.00000
 1996  642 TIP3 H2     2.27281   5.00966  -3.52088 WT00 642    0.00000
 1997  643 TIP3 OH2    7.29898  -1.79046   0.16355 WT00 643    0.00000
 1998  643 TIP3 H1     7.36537  -1.85238  -0.81472 WT00 643    0.00000
 1999  643 TIP3 H2     7.88332  -2.52891   0.43085 WT00 643    0.00000
 2000  644 TIP3 OH2   -2.98555  -4.94846   4.27527 WT00 644    0.00000
 2001  644 TIP3 H1    -3.66988  -5.15585   3.61162 WT00 644    0.00000
 2002  644 TIP3 H2    -3.00816  -3.97728   4.24724 WT00 644    0.00000
 2003  645 TIP3 OH2   -8.42807   1.73956   8.03085 WT00 645    0.00000
 2004  645 TIP3 H1    -8.53270   2.60082   7.59017 WT00 645    0.00000
 2005  645 TIP3 H2    -7.56184   1.88796   8.46652 WT00 645    0.00000
 2006  646 TIP3 OH2    0.59563   9.11748  -6.24416 WT00 646    0.00000
 2007  646 TIP3 H1    -0.35987   9.27743  -6.41964 WT00 646    0.00000
 2008  646 TIP3 H2     0.63469   8.14312  -6.34085 WT00 646    0.00000
 2009  647 TIP3 OH2   -5.65199  -7.72776   3.25636 WT00 647    0.00000
 2010  647 TIP3 H1    -4.81334  -8.20327   3.07524 WT00 647    0.00000
 2011  647 TIP3 H2    -5.46519  -6.83457   2.90509 WT00 647    0.00000
 2012  648 TIP3 OH2   -7.52580   8.98453   2.64054 WT00 648    0.00000
 2013  648 TIP3 H1    -6.99581   9.79812   2.77494 WT00 648    0.00000
 2014  648 TIP3 H2    -7.36356   8.55963   3.50717 WT00 648    0.00000
 2015  649 TIP3 OH2    8.00947   5.59878   1.69936 WT00 649    0.00000
 2016  649 TIP3 H1     8.32734   5.13570   2.50395 WT00 649    0.00000
 2017  649 TIP3 H2     8.70818   5.37746   1.05770 WT00 649    0.00000
 2018  650 TIP3 OH2   -0.18071  -3.20952   9.13818 WT00 650    0.00000
 2019  650 TIP3 H1    -0.00533  -3.27223   8.18181 WT00 650    0.00000
 2020  650 TIP3 H2    -0.25018  -2.25522   9.26264 WT00 650    0.00000
 2021  651 TIP3 OH2   -1.81357   7.46239   0.96868 WT00 651    0.00000
 2022  651 TIP3 H1    -1.91783   7.55412  -0.00358 WT00 651    0.00000
 2023  651 TIP3 H2    -0.85656   7.63128   1.10572 WT00 651    0.00000
 2024  652 TIP3 OH2    6.29501  -4.26147   6.36552 WT00 652    0.00000
 2025  652 TIP3 H1     5.62546  -3.56457   6.33631 WT00 652    0.00000
 2026  652 TIP3 H2     5.84245  -4.92751   6.92463 WT00 652    0.00000
 2027  653 TIP3 OH2    2.48820   9.04852  -0.57031 WT00 653    0.00000
 2028  653 TIP3 H1     1.67938   9.54933  -0.80541 WT00 653    0.00000
 2029  653 TIP3 H2     2.10401   8.14137  -0.62003 WT00 653    0.00000
 2030  654 TIP3 OH2   -6.92603   3.63690   6.29603 WT00 654    0.00000
 2031  654 TIP3 H1    -6.02942   3.31973   6.10350 WT00 654    0.00000
 2032  654 TIP3 H2    -6.75295   4.53666   6.58795 WT00 654    0.00000
 2033  655 TIP3 OH2   -8.55912   5.46615  -0.50642 WT00 655    0.00000
 2034  655 TIP3 H1    -7.80722   5.75523   0.04412 WT00 655    0.00000
 2035  655 TIP3 H2    -8.66172   6.24716  -1.08005 WT00 655    0.00000
 2036  656 TIP3 OH2   -5.61018  -5.90096  -6.55943 WT00 656    0.00000
 2037  656 TIP3 H1    -5.93341  -5.29582  -7.25413 WT00 656    0.00000
 2038  656 TIP3 H2    -6.42245  -6.39598  -6.35652 WT00 656    0.00000
 2039  657 TIP3 OH2   -0.09122   2.87088  -7.61224 WT00 657    0.00000
 2040  657 TIP3 H1    -0.37040   3.03711  -8.52406 WT00 657    0.00000
 2041  657 TIP3 H2    -0.76284   3.34111  -7.10297 WT00 657    0.00000
 2042  658 TIP3 OH2    3.17202   4.02796  -6.12815 WT00 658    0.00000
 2043  658 TIP3 H1     3.84346   4.73491  -6.21103 WT00 658    0.00000
 2044  658 TIP3 H2     2.43441   4.45661  -6.58036 WT00 658    0.00000
 2045  659 TIP3 OH2    7.46253   3.42915  -1.44652 WT00 659    0.00000
 2046  659 TIP3 H1     7.94970   4.06402  -1.99919 WT00 659    0.00000
 2047  659 TIP3 H2     7.56479   2.62106  -2.00040 WT00 659    0.00000
 2048  660 TIP3 OH2   -1.19756  -4.81320  -7.47235 WT00 660    0.00000
 2049  660 TIP3 H1    -0.74993  -4.44177  -8.26507 WT00 660    0.00000
 2050  660 TIP3 H2    -0.43718  -5.14114  -6.96967 WT00 660    0.00000
 2051  661 TIP3 OH2   -9.24728   4.50053  -3.22277 WT00 661    0.00000
 2052  661 TIP3 H1    -8.76424   4.68093  -2.39678 WT00 661    0.00000
 2053  661 TIP3 H2    -8.62591   3.93033  -3.70137 WT00 661    0.00000
 2054  662 TIP3 OH2   -5.08004   1.01157   1.93756 WT00 662    0.00000
 2055  662 TIP3 H1    -4.82285   0.75944   1.02859 WT00 662    0.00000
 2056  662 TIP3 H2    -5.55811   1.83417   1.72555 WT00 662    0.00000
 2057  663 TIP3 OH2    3.78694   5.86577   8.52163 WT00 663    0.00000
 2058  663 TIP3 H1     4.59239   5.81751   9.06924 WT00 663    0.00000
 2059  663 TIP3 H2     3.95887   6.67785   8.01019 WT00 663    0.00000
 2060  664 TIP3 OH2    5.23323  -6.21639   7.96131 WT00 664    0.00000
 2061  664 TIP3 H1     5.51236  -6.35872   8.88808 WT00 664    0.00000
 2062  664 TIP3 H2     4.27754  -6.43267   8.03756 WT00 664    0.00000
 2063  665 TIP3 OH2    0.44272  -7.95188   2.23928 WT00 665    0.00000
 2064  665 TIP3 H1     0.94323  -8.15700   3.04835 WT00 665    0.00000
 2065  665 TIP3 H2     1.12595  -7.45272   1.73643 WT00 665    0.00000
 2066  666 TIP3 OH2    8.30653   8.26143   6.03014 WT00 666    0.00000
 2067  666 TIP3 H1     7.87891   8.17402   5.14485 WT00 666    0.00000
 2068  666 TIP3 H2     8.67261   9.16855   5.97990 WT00 666    0.00000
 2069  667 TIP3 OH2    0.72653   7.75316   1.91101 WT00 667    0.00000
 2070  667 TIP3 H1     1.01632   8.67523   1.81931 WT00 667    0.00000
 2071  667 TIP3 H2     1.56028   7.24816   1.80714 WT00 667    0.00000
 2072  668 TIP3 OH2   -7.62087  -6.14172   8.66955 WT00 668    0.00000
 2073  668 TIP3 H1    -8.47790  -6.03551   8.21306 WT00 668    0.00000
 2074  668 TIP3 H2    -7.01352  -6.03575   7.90790 WT00 668    0.00000
 2075  669 TIP3 OH2    8.16069  -5.11854  -4.04350 WT00 669    0.00000
 2076  669 TIP3 H1     7.21037  -5.02648  -3.84569 WT00 669    0.00000
 2077  669 TIP3 H2     8.13688  -5.10487  -5.01802 WT00 669    0.00000
 2078  670 TIP3 OH2   -2.42908   7.11106   7.75307 WT00 670    0.00000
 2079  670 TIP3 H1    -2.84553   7.63798   7.04405 WT00 670    0.00000
 2080  670 TIP3 H2    -3.09106   7.18862   8.47267 WT00 670    0.00000
 2081  671 TIP3 OH2   -3.15003   8.85959   5.66988 WT00 671    0.00000
 2082  671 TIP3 H1    -3.14795   9.18411   4.74482 WT00 671    0.00000
 2083  671 TIP3 H2    -3.31191   9.68696   6.15054 WT00 671    0.00000
 2084  672 TIP3 OH2   -6.98278  -7.09651  -2.63578 WT00 672    0.00000
 2085  672 TIP3 H1    -6.08684  -7.45059  -2.66331 WT00 672    0.00000
 2086  672 TIP3 H2    -7.39577  -7.54863  -3.40722 WT00 672    0.00000
 2087  673 TIP3 OH2    7.39785   8.48068  -1.33051 WT00 673    0.00000
 2088  673 TIP3 H1     8.05423   8.71098  -0.64081 WT00 673    0.00000
 2089  673 TIP3 H2     6.87190   7.80921  -0.84814 WT00 673    0.00000
 2090  674 TIP3 OH2    1.76940   7.66905   5.68222 WT00 674    0.00000
 2091  674 TIP3 H1     1.05266   7.84242   6.32294 WT00 674    0.00000
 2092  674 TIP3 H2     1.55504   6.76085   5.40339 WT00 674    0.00000
 2093  675 TIP3 OH2   -2.18023   5.80717  -5.88446 WT00 675    0.00000
 2094  675 TIP3 H1    -2.20016   5.26216  -5.06634 WT00 675    0.00000
 2095  675 TIP3 H2    -3.08999   5.67807  -6.21906 WT00 675    0.00000
 2096  676 TIP3 OH2    1.69755   6.62929  -3.87168 WT00 676    0.00000
 2097  676 TIP3 H1     1.40547   6.54094  -4.80764 WT00 676    0.00000
 2098  676 TIP3 H2     2.21932   7.45825  -3.88944 WT00 676    0.00000
 2099  677 TIP3 OH2    1.13775  -0.39471  -9.15359 WT00 677    0.00000
 2100  677 TIP3 H1     0.22093  -0.08543  -9.30792 WT00 677    0.00000
 2101  677 TIP3 H2     1.64292   0.41508  -9.36022 WT00 677    0.00000
 2102  678 TIP3 OH2   -8.59031  -0.43788  -3.38750 WT00 678    0.00000
 2103  678 TIP3 H1    -8.43482  -1.08844  -2.66576 WT00 678    0.00000
 2104  678 TIP3 H2    -8.90639  -1.02551  -4.10581 WT00 678    0.00000
 2105  679 TIP3 OH2   -4.08981   4.43551   0.04853 WT00 679    0.00000
 2106  679 TIP3 H1    -4.19632   4.53333  -0.90241 WT00 679    0.00000
 2107  679 TIP3 H2    -4.86321   3.87209   0.26272 WT00 679    0.00000
 2108  680 TIP3 OH2    0.18295  -8.70625  -1.74533 WT00 680    0.00000
 2109  680 TIP3 H1    -0.12998  -9.38621  -2.37542 WT00 680    0.00000
 2110  680 TIP3 H2    -0.64523  -8.26528  -1.52731 WT00 680    0.00000
 2111  681 TIP3 OH2    6.34490  -7.82239  -2.31726 WT00 681    0.00000
 2112  681 TIP3 H1     6.57720  -8.71907  -1.99359 WT00 681    0.00000
 2113  681 TIP3 H2     6.54774  -7.92199  -3.26834 WT00 681    0.00000
 2114  682 TIP3 OH2   -4.05003   6.26834   5.07642 WT00 682    0.00000
 2115  682 TIP3 H1    -3.79257   6.00789   4.16446 WT00 682    0.00000
 2116  682 TIP3 H2    -3.54463   7.09706   5.19022 WT00 682    0.00000
 2117  683 TIP3 OH2    3.90861  -2.85191  -5.79030 WT00 683    0.00000
 2118  683 TIP3 H1     3.92749  -3.69386  -6.26220 WT00 683    0.00000
 2119  683 TIP3 H2     3.01318  -2.88076  -5.40468 WT00 683    0.00000
 2120  684 TIP3 OH2   -3.20625   5.74384   2.47026 WT00 684    0.00000
 2121  684 TIP3 H1    -3.57140   5.11503   1.81647 WT00 684    0.00000
 2122  684 TIP3 H2    -2.75803   6.36416   1.85145 WT00 684    0.00000
 2123  685 TIP3 OH2    7.14681   7.59863   3.66536 WT00 685    0.00000
 2124  685 TIP3 H1     7.43971   7.02797   2.93305 WT00 685    0.00000
 2125  685 TIP3 H2     6.17793   7.60127   3.54509 WT00 685    0.00000
 2126  686 TIP3 OH2   -2.10477   9.36744  -6.52759 WT00 686    0.00000
 2127  686 TIP3 H1    -2.69268  10.14128  -6.56229 WT00 686    0.00000
 2128  686 TIP3 H2    -2.71424   8.69211  -6.18733 WT00 686    0.00000
 2129  687 TIP3 OH2   -8.28019  -3.20818   7.42092 WT00 687    0.00000
 2130  687 TIP3 H1    -7.75984  -3.73828   6.80119 WT00 687    0.00000
 2131  687 TIP3 H2    -8.66889  -2.54224   6.83748 WT00 687    0.00000
 2132  688 TIP3 OH2   -2.66900  -5.91178  -3.46728 WT00 688    0.00000
 2133  688 TIP3 H1    -3.15606  -5.14169  -3.81144 WT00 688    0.00000
 2134  688 TIP3 H2    -1.76285  -5.76129  -3.80935 WT00 688    0.00000
 2135  689 TIP3 OH2    4.75249  -3.33342  -1.94895 WT00 689    0.00000
 2136  689 TIP3 H1     5.03162  -3.72998  -1.08898 WT00 689    0.00000
 2137  689 TIP3 H2     3.82640  -3.13232  -1.76976 WT00 689    0.00000
 2138  690 TIP3 OH2    4.84430   9.24639   0.82917 WT00 690    0.00000
 2139  690 TIP3 H1     4.02424   9.22682   0.29078 WT00 690    0.00000
 2140  690 TIP3 H2     5.23158   8.37061   0.61922 WT00 690    0.00000
 2141  691 TIP3 OH2    6.94186  -1.81402  -2.58420 WT00 691    0.00000
 2142  691 TIP3 H1     6.15017  -2.36485  -2.41606 WT00 691    0.00000
 2143  691 TIP3 H2     6.81129  -1.60881  -3.52828 WT00 691    0.00000
 2144  692 TIP3 OH2   -6.06597  -9.04090  -8.13294 WT00 692    0.00000
 2145  692 TIP3 H1    -6.47030  -8.28234  -8.57367 WT00 692    0.00000
 2146  692 TIP3 H2    -6.85220  -9.62100  -8.00427 WT00 692    0.00000
 2147  693 TIP3 OH2    6.23903  -7.58428   2.18403 WT00 693    0.00000
 2148  693 TIP3 H1     6.72046  -7.25211   1.39933 WT00 693    0.00000
 2149  693 TIP3 H2     5.72103  -8.30868   1.75978 WT00 693    0.00000
 2150  694 TIP3 OH2    0.70857  -7.79008   6.35521 WT00 694    0.00000
 2151  694 TIP3 H1    -0.14647  -7.32402   6.19462 WT00 694    0.00000
 2152  694 TIP3 H2     0.37258  -8.63944   6.69211 WT00 694    0.00000
 2153  695 TIP3 OH2    3.88061  -5.92592  -6.00563 WT00 695    0.00000
 2154  695 TIP3 H1     3.25604  -6.45766  -5.46861 WT00 695    0.00000
 2155  695 TIP3 H2     4.48438  -5.62012  -5.29087 WT00 695    0.00000
 2156  696 TIP3 OH2   -5.91432   2.48221   9.06868 WT00 696    0.00000
 2157  696 TIP3 H1    -5.35143   3.06223   8.52984 WT00 696    0.00000
 2158  696 TIP3 H2    -5.25851   1.87657   9.45736 WT00 696    0.00000
 2159  697 TIP3 OH2   -2.91272  -1.75998   6.98486 WT00 697    0.00000
 2160  697 TIP3 H1    -3.44655  -2.51543   7.32465 WT00 697    0.00000
 2161  697 TIP3 H2    -2.80327  -1.24972   7.79664 WT00 697    0.00000
 2162  698 TIP3 OH2   -7.56898  -0.35375   6.31579 WT00 698    0.00000
 2163  698 TIP3 H1    -7.79769   0.51632   6.69923 WT00 698    0.00000
 2164  698 TIP3 H2    -7.15125  -0.77833   7.07862 WT00 698    0.00000
 2165  699 TIP3 OH2   -6.45689   3.16827   0.71755 WT00 699    0.00000
 2166  699 TIP3 H1    -6.76547   3.62114   1.53502 WT00 699    0.00000
 2167  699 TIP3 H2    -7.30768   2.85080   0.35683 WT00 699    0.00000
 2168  700 TIP3 OH2   -6.10524  -5.46601   6.44345 WT00 700    0.00000
 2169  700 TIP3 H1    -6.30767  -4.96828   5.62288 WT00 700    0.00000
 2170  700 TIP3 H2    -5.90551  -6.36056   6.09754 WT00 700    0.00000
 2171  701 TIP3 OH2    8.50780  -5.75606   7.44107 WT00 701    0.00000
 2172  701 TIP3 H1     8.21691  -5.21984   8.19909 WT00 701    0.00000
 2173  701 TIP3 H2     7.92108  -5.38330   6.75309 WT00 701    0.00000
 2174  702 TIP3 OH2    2.61977  -6.99821   8.36131 WT00 702    0.00000
 2175  702 TIP3 H1     2.42554  -7.79669   8.89183 WT00 702    0.00000
 2176  702 TIP3 H2     2.01383  -7.13198   7.60520 WT00 702    0.00000
 2177  703 TIP3 OH2    0.12013  -3.31663   6.23241 WT00 703    0.00000
 2178  703 TIP3 H1     0.79535  -3.65844   5.63092 WT00 703    0.00000
 2179  703 TIP3 H2    -0.64480  -3.86611   6.01057 WT00 703    0.00000
 2180  704 TIP3 OH2   -6.41099   7.79496   4.92824 WT00 704    0.00000
 2181  704 TIP3 H1    -5.60644   7.24353   5.00102 WT00 704    0.00000
 2182  704 TIP3 H2    -7.08738   7.18731   5.28346 WT00 704    0.00000
 2183  705 TIP3 OH2   -2.56602   7.69539  -1.65360 WT00 705    0.00000
 2184  705 TIP3 H1    -3.46883   7.48775  -1.93754 WT00 705    0.00000
 2185  705 TIP3 H2    -2.11196   7.90029  -2.49595 WT00 705    0.00000
 2186  706 TIP3 OH2    7.80300  -1.23779   9.14757 WT00 706    0.00000
 2187  706 TIP3 H1     6.84713  -1.04270   9.21233 WT00 706    0.00000
 2188  706 TIP3 H2     7.95289  -1.07687   8.18722 WT00 706    0.00000
 2189  707 TIP3 OH2   -4.80513  -0.90332  13.88895 WT00 707    0.00000
 2190  707 TIP3 H1    -5.15605  -1.42932  14.61914 WT00 707    0.00000
 2191  707 TIP3 H2    -4.56409  -1.59402  13.25424 WT00 707    0.00000
 2192  708 TIP3 OH2   -2.69184  -2.64583  12.33405 WT00 708    0.00000
 2193  708 TIP3 H1    -2.07583  -1.89139  12.38442 WT00 708    0.00000
 2194  708 TIP3 H2    -2.16849  -3.29876  11.82838 WT00 708    0.00000
 2195  709 TIP3 OH2    6.09336  -1.30702  13.42252 WT00 709    0.00000
 2196  709 TIP3 H1     5.75517  -0.44294  13.14517 WT00 709    0.00000
 2197  709 TIP3 H2     5.31295  -1.87299  13.21059 WT00 709    0.00000
 2198  710 TIP3 OH2    8.88472  -1.65439  13.00607 WT00 710    0.00000
 2199  710 TIP3 H1     7.91294  -1.54242  12.99581 WT00 710    0.00000
 2200  710 TIP3 H2     9.16366  -1.13651  12.22057 WT00 710    0.00000
 2201  711 TIP3 OH2   -6.54088  -4.03488  10.25098 WT00 711    0.00000
 2202  711 TIP3 H1    -7.07856  -4.63583   9.69729 WT00 711    0.00000
 2203  711 TIP3 H2    -7.14498  -3.87489  11.01427 WT00 711    0.00000
 2204  712 TIP3 OH2    5.85475   3.05431  10.37723 WT00 712    0.00000
 2205  712 TIP3 H1     6.20798   2.61115   9.57730 WT00 712    0.00000
 2206  712 TIP3 H2     5.20388   2.39922  10.68434 WT00 712    0.00000
 2207  713 TIP3 OH2   -8.66116   7.24628  16.10127 WT00 713    0.00000
 2208  713 TIP3 H1    -9.32176   7.60155  15.47386 WT00 713    0.00000
 2209  713 TIP3 H2    -8.42018   8.04862  16.61239 WT00 713    0.00000
 2210  714 TIP3 OH2   -4.48848   7.44698   9.58493 WT00 714    0.00000
 2211  714 TIP3 H1    -5.27223   7.17323   9.06306 WT00 714    0.00000
 2212  714 TIP3 H2    -4.81098   8.29748   9.94612 WT00 714    0.00000
 2213  715 TIP3 OH2    8.60112   2.34724  10.92416 WT00 715    0.00000
 2214  715 TIP3 H1     7.70267   2.55776  11.23213 WT00 715    0.00000
 2215  715 TIP3 H2     8.46706   2.44767   9.96611 WT00 715    0.00000
 2216  716 TIP3 OH2    7.65235   0.96936  15.61867 WT00 716    0.00000
 2217  716 TIP3 H1     7.31089   1.24963  14.75244 WT00 716    0.00000
 2218  716 TIP3 H2     8.48274   0.51378  15.40675 WT00 716    0.00000
 2219  717 TIP3 OH2    8.74298  -3.82983   9.57864 WT00 717    0.00000
 2220  717 TIP3 H1     8.34113  -2.93697   9.58456 WT00 717    0.00000
 2221  717 TIP3 H2     9.42062  -3.68360   8.88438 WT00 717    0.00000
 2222  718 TIP3 OH2   -8.89620  -0.24146  10.81396 WT00 718    0.00000
 2223  718 TIP3 H1    -9.12112   0.70859  10.80979 WT00 718    0.00000
 2224  718 TIP3 H2    -9.53686  -0.58146  10.15103 WT00 718    0.00000
 2225  719 TIP3 OH2   -1.00374   7.79225  15.12304 WT00 719    0.00000
 2226  719 TIP3 H1    -0.79316   8.56458  14.58159 WT00 719    0.00000
 2227  719 TIP3 H2    -0.19008   7.26733  15.00934 WT00 719    0.00000
 2228  720 TIP3 OH2    2.76450  -2.61278   9.34978 WT00 720    0.00000
 2229  720 TIP3 H1     2.13284  -1.86747   9.47353 WT00 720    0.00000
 2230  720 TIP3 H2     2.27218  -3.34029   9.77793 WT00 720    0.00000
 2231  721 TIP3 OH2    4.32132   6.57473  12.32817 WT00 721    0.00000
 2232  721 TIP3 H1     4.54417   6.81604  13.24862 WT00 721    0.00000
 2233  721 TIP3 H2     4.10221   7.42768  11.92939 WT00 721    0.00000
 2234  722 TIP3 OH2   -8.03349  -3.78606  12.55342 WT00 722    0.00000
 2235  722 TIP3 H1    -8.10400  -4.25781  13.39287 WT00 722    0.00000
 2236  722 TIP3 H2    -8.66676  -3.05476  12.70759 WT00 722    0.00000
 2237  723 TIP3 OH2   -4.47136   2.71443  15.39035 WT00 723    0.00000
 2238  723 TIP3 H1    -4.34693   2.51216  14.45124 WT00 723    0.00000
 2239  723 TIP3 H2    -4.82260   3.62986  15.36590 WT00 723    0.00000
 2240  724 TIP3 OH2    0.45175   6.34861  12.43099 WT00 724    0.00000
 2241  724 TIP3 H1    -0.49763   6.12214  12.58691 WT00 724    0.00000
 2242  724 TIP3 H2     0.46941   6.30402  11.44532 WT00 724    0.00000
 2243  725 TIP3 OH2   -7.10976   6.55503  13.63009 WT00 725    0.00000
 2244  725 TIP3 H1    -6.60216   7.39099  13.54927 WT00 725    0.00000
 2245  725 TIP3 H2    -7.72026   6.74122  14.36809 WT00 725    0.00000
 2246  726 TIP3 OH2    6.04379   5.78345  10.31453 WT00 726    0.00000
 2247  726 TIP3 H1     6.06322   4.80193  10.37799 WT00 726    0.00000
 2248  726 TIP3 H2     5.56469   6.00884  11.13626 WT00 726    0.00000
 2249  727 TIP3 OH2    7.27260   4.78446  13.61569 WT00 727    0.00000
 2250  727 TIP3 H1     7.17607   3.83268  13.47468 WT00 727    0.00000
 2251  727 TIP3 H2     8.11640   4.80024  14.12198 WT00 727    0.00000
 2252  728 TIP3 OH2   -4.24639  -8.20119  14.67850 WT00 728    0.00000
 2253  728 TIP3 H1    -3.90946  -8.57081  15.50960 WT00 728    0.00000
 2254  728 TIP3 H2    -3.72862  -7.36598  14.64694 WT00 728    0.00000
 2255  729 TIP3 OH2    3.77220   1.73202  16.00357 WT00 729    0.00000
 2256  729 TIP3 H1     3.39358   2.60258  15.78153 WT00 729    0.00000
 2257  729 TIP3 H2     3.25404   1.46260  16.77697 WT00 729    0.00000
 2258  730 TIP3 OH2   -4.48004  -4.06242  13.89402 WT00 730    0.00000
 2259  730 TIP3 H1    -4.82798  -4.73362  13.26815 WT00 730    0.00000
 2260  730 TIP3 H2    -3.82475  -3.59496  13.32891 WT00 730    0.00000
 2261  731 TIP3 OH2   -4.01957   0.44443   9.98545 WT00 731    0.00000
 2262  731 TIP3 H1    -3.95103   0.43444  10.94907 WT00 731    0.00000
 2263  731 TIP3 H2    -4.79407  -0.15348   9.85643 WT00 731    0.00000
 2264  732 TIP3 OH2   -1.12688  -8.49955   9.54092 WT00 732    0.00000
 2265  732 TIP3 H1    -1.78376  -7.81420   9.33487 WT00 732    0.00000
 2266  732 TIP3 H2    -1.38445  -8.71851  10.45262 WT00 732    0.00000
 2267  733 TIP3 OH2    4.57642   8.89334   9.81328 WT00 733    0.00000
 2268  733 TIP3 H1     3.62372   9.10331   9.91043 WT00 733    0.00000
 2269  733 TIP3 H2     4.58607   8.69503   8.85249 WT00 733    0.00000
 2270  734 TIP3 OH2    0.01453  -5.63988  14.26889 WT00 734    0.00000
 2271  734 TIP3 H1     0.77434  -6.23268  14.12896 WT00 734    0.00000
 2272  734 TIP3 H2     0.41654  -4.76575  14.09095 WT00 734    0.00000
 2273  735 TIP3 OH2    7.79049  -5.41839  11.82382 WT00 735    0.00000
 2274  735 TIP3 H1     8.06394  -4.73986  11.17320 WT00 735    0.00000
 2275  735 TIP3 H2     7.02134  -5.81617  11.36276 WT00 735    0.00000
 2276  736 TIP3 OH2    2.08956  -7.52383  13.92274 WT00 736    0.00000
 2277  736 TIP3 H1     1.52523  -8.15286  13.43268 WT00 736    0.00000
 2278  736 TIP3 H2     2.60877  -8.16032  14.45787 WT00 736    0.00000
 2279  737 TIP3 OH2   -5.32682   5.36571  15.42078 WT00 737    0.00000
 2280  737 TIP3 H1    -6.00958   5.36783  16.12605 WT00 737    0.00000
 2281  737 TIP3 H2    -5.85951   5.67450  14.65833 WT00 737    0.00000
 2282  738 TIP3 OH2   -1.02899  -0.21239  12.47289 WT00 738    0.00000
 2283  738 TIP3 H1    -1.74251   0.44389  12.64126 WT00 738    0.00000
 2284  738 TIP3 H2    -0.39026   0.30583  11.96385 WT00 738    0.00000
 2285  739 TIP3 OH2    3.22740   8.99597  15.26744 WT00 739    0.00000
 2286  739 TIP3 H1     4.02537   8.44277  15.38044 WT00 739    0.00000
 2287  739 TIP3 H2     2.94663   9.19249  16.17004 WT00 739    0.00000
 2288  740 TIP3 OH2    5.31436  -5.25507  14.93161 WT00 740    0.00000
 2289  740 TIP3 H1     4.98977  -4.42105  15.29609 WT00 740    0.00000
 2290  740 TIP3 H2     5.25797  -5.82893  15.71147 WT00 740    0.00000
 2291  741 TIP3 OH2   -7.92174   4.85672  10.07309 WT00 741    0.00000
 2292  741 TIP3 H1    -7.51505   4.01603  10.31830 WT00 741    0.00000
 2293  741 TIP3 H2    -8.59801   4.56984   9.42576 WT00 741    0.00000
 2294  742 TIP3 OH2    8.40745   8.19739  14.11085 WT00 742    0.00000
 2295  742 TIP3 H1     7.76217   8.92730  14.03490 WT00 742    0.00000
 2296  742 TIP3 H2     8.20055   7.65177  13.34028 WT00 742    0.00000
 2297  743 TIP3 OH2    6.96013  -8.13794  13.66305 WT00 743    0.00000
 2298  743 TIP3 H1     6.90435  -8.52858  12.76399 WT00 743    0.00000
 2299  743 TIP3 H2     7.22055  -7.22703  13.46167 WT00 743    0.00000
 2300  744 TIP3 OH2   -0.28960  -1.30966  14.85776 WT00 744    0.00000
 2301  744 TIP3 H1    -0.63614  -0.79458  14.10352 WT00 744    0.00000
 2302  744 TIP3 H2    -0.01688  -0.64159  15.49018 WT00 744    0.00000
 2303  745 TIP3 OH2   -8.30998  -8.27140  13.93295 WT00 745    0.00000
 2304  745 TIP3 H1    -8.39915  -7.88673  13.03797 WT00 745    0.00000
 2305  745 TIP3 H2    -8.88671  -9.04664  13.89363 WT00 745    0.00000
 2306  746 TIP3 OH2   -4.70936   5.43815  11.62962 WT00 746    0.00000
 2307  746 TIP3 H1    -4.48673   5.99159  10.85559 WT00 746    0.00000
 2308  746 TIP3 H2    -5.45418   5.93384  12.00382 WT00 746    0.00000
 2309  747 TIP3 OH2   -5.29489   2.74879  12.32335 WT00 747    0.00000
 2310  747 TIP3 H1    -5.16744   3.63524  11.93074 WT00 747    0.00000
 2311  747 TIP3 H2    -6.26971   2.72279  12.43940 WT00 747    0.00000
 2312  748 TIP3 OH2   -8.01992   7.79272  11.09505 WT00 748    0.00000
 2313  748 TIP3 H1    -8.82945   7.50217  10.63159 WT00 748    0.00000
 2314  748 TIP3 H2    -7.88841   7.07798  11.74073 WT00 748    0.00000
 2315  749 TIP3 OH2    2.17197   1.53610  11.90125 WT00 749    0.00000
 2316  749 TIP3 H1     2.62133   2.36363  12.15929 WT00 749    0.00000
 2317  749 TIP3 H2     1.32676   1.89905  11.56971 WT00 749    0.00000
 2318  750 TIP3 OH2    1.95475  -5.13657  10.73687 WT00 750    0.00000
 2319  750 TIP3 H1     2.62251  -5.44548  11.37436 WT00 750    0.00000
 2320  750 TIP3 H2     2.07396  -5.74901   9.99379 WT00 750    0.00000
 2321  751 TIP3 OH2    1.15968  -3.17069  13.52187 WT00 751    0.00000
 2322  751 TIP3 H1     0.73350  -2.60806  14.21311 WT00 751    0.00000
 2323  751 TIP3 H2     0.85428  -2.72422  12.72414 WT00 751    0.00000
 2324  752 TIP3 OH2    8.26530   7.19894   9.61741 WT00 752    0.00000
 2325  752 TIP3 H1     7.43961   6.71473   9.85528 WT00 752    0.00000
 2326  752 TIP3 H2     8.56522   6.63203   8.89426 WT00 752    0.00000
 2327  753 TIP3 OH2   -6.54059  -3.34258  15.58992 WT00 753    0.00000
 2328  753 TIP3 H1    -6.93541  -4.19768  15.81853 WT00 753    0.00000
 2329  753 TIP3 H2    -5.86978  -3.59953  14.92588 WT00 753    0.00000
 2330  754 TIP3 OH2   -8.01009   2.64937  12.83000 WT00 754    0.00000
 2331  754 TIP3 H1    -8.34048   1.78610  13.09387 WT00 754    0.00000
 2332  754 TIP3 H2    -8.71104   2.92890  12.21156 WT00 754    0.00000
 2333  755 TIP3 OH2    0.44054   6.48336   9.75890 WT00 755    0.00000
 2334  755 TIP3 H1     0.83959   5.79724   9.19220 WT00 755    0.00000
 2335  755 TIP3 H2    -0.02761   7.02266   9.10599 WT00 755    0.00000
 2336  756 TIP3 OH2   -5.31267   8.56333  13.02569 WT00 756    0.00000
 2337  756 TIP3 H1    -5.01233   9.27966  13.62496 WT00 756    0.00000
 2338  756 TIP3 H2    -5.56690   9.06372  12.22720 WT00 756    0.00000
 2339  757 TIP3 OH2    6.84416   9.08869  11.26537 WT00 757    0.00000
 2340  757 TIP3 H1     7.49537   8.58854  10.73780 WT00 757    0.00000
 2341  757 TIP3 H2     6.02497   8.87216  10.76351 WT00 757    0.00000
 2342  758 TIP3 OH2    5.71894  -6.83876  10.65953 WT00 758    0.00000
 2343  758 TIP3 H1     4.98044  -6.67219  11.28088 WT00 758    0.00000
 2344  758 TIP3 H2     5.80188  -7.80705  10.68301 WT00 758    0.00000
 2345  759 TIP3 OH2   -6.81245   1.38788  16.23423 WT00 759    0.00000
 2346  759 TIP3 H1    -7.11219   0.87930  15.46415 WT00 759    0.00000
 2347  759 TIP3 H2    -6.05137   1.89448  15.89170 WT00 759    0.00000
 2348  760 TIP3 OH2    5.04906   6.73698  15.01828 WT00 760    0.00000
 2349  760 TIP3 H1     4.61827   5.87440  15.18144 WT00 760    0.00000
 2350  760 TIP3 H2     5.96826   6.46207  14.86689 WT00 760    0.00000
 2351  761 TIP3 OH2   -3.26362   1.21125  13.11346 WT00 761    0.00000
 2352  761 TIP3 H1    -3.79183   0.48914  13.52480 WT00 761    0.00000
 2353  761 TIP3 H2    -3.97909   1.76683  12.72944 WT00 761    0.00000
 2354  762 TIP3 OH2    6.18156   1.92521  13.38169 WT00 762    0.00000
 2355  762 TIP3 H1     5.44572   2.35799  13.83401 WT00 762    0.00000
 2356  762 TIP3 H2     5.71821   1.52845  12.61383 WT00 762    0.00000
 2357  763 TIP3 OH2   -8.52440  -6.89368  11.54408 WT00 763    0.00000
 2358  763 TIP3 H1    -9.26369  -6.29299  11.76711 WT00 763    0.00000
 2359  763 TIP3 H2    -8.51072  -6.82712  10.57774 WT00 763    0.00000
 2360  764 TIP3 OH2    1.92197  -9.16308   9.94367 WT00 764    0.00000
 2361  764 TIP3 H1     1.46864  -9.16181  10.81072 WT00 764    0.00000
 2362  764 TIP3 H2     1.25133  -9.59052   9.38836 WT00 764    0.00000
 2363  765 TIP3 OH2   -3.29994  -6.66956  10.71197 WT00 765    0.00000
 2364  765 TIP3 H1    -4.05850  -6.41188  11.27567 WT00 765    0.00000
 2365  765 TIP3 H2    -2.65849  -5.95148  10.89642 WT00 765    0.00000
 2366  766 TIP3 OH2   -6.28324  -1.09092   9.93655 WT00 766    0.00000
 2367  766 TIP3 H1    -6.35514  -2.06081   9.95062 WT00 766    0.00000
 2368  766 TIP3 H2    -7.15100  -0.81859  10.29363 WT00 766    0.00000
 2369  767 TIP3 OH2   -1.88027   3.99824  14.94277 WT00 767    0.00000
 2370  767 TIP3 H1    -1.86927   4.47534  15.78414 WT00 767    0.00000
 2371  767 TIP3 H2    -2.52233   3.29306  15.11995 WT00 767    0.00000
 2372  768 TIP3 OH2    4.71999   0.67129  11.40437 WT00 768    0.00000
 2373  768 TIP3 H1     4.77569   0.10054  10.60816 WT00 768    0.00000
 2374  768 TIP3 H2     3.74492   0.71793  11.53985 WT00 768    0.00000
 2375  769 TIP3 OH2    3.31338   4.37711  15.17445 WT00 769    0.00000
 2376  769 TIP3 H1     3.05355   4.09143  14.27714 WT00 769    0.00000
 2377  769 TIP3 H2     2.50165   4.84444  15.45933 WT00 769    0.00000
 2378  770 TIP3 OH2    0.61292   9.10408  12.41781 WT00 770    0.00000
 2379  770 TIP3 H1    -0.35343   9.25610  12.31414 WT00 770    0.00000
 2380  770 TIP3 H2     0.63773   8.12549  12.37905 WT00 770    0.00000
 2381  771 TIP3 OH2   -5.58816  -5.90321  12.11212 WT00 771    0.00000
 2382  771 TIP3 H1    -5.93617  -5.30375  11.42449 WT00 771    0.00000
 2383  771 TIP3 H2    -6.39496  -6.38418  12.36388 WT00 771    0.00000
 2384  772 TIP3 OH2   -0.09676   2.84313  11.04872 WT00 772    0.00000
 2385  772 TIP3 H1    -0.37162   3.03686  10.14122 WT00 772    0.00000
 2386  772 TIP3 H2    -0.73921   3.34173  11.56946 WT00 772    0.00000
 2387  773 TIP3 OH2    3.15856   4.04755  12.40153 WT00 773    0.00000
 2388  773 TIP3 H1     3.84207   4.74172  12.31293 WT00 773    0.00000
 2389  773 TIP3 H2     2.41485   4.49456  11.97591 WT00 773    0.00000
 2390  774 TIP3 OH2   -1.20260  -4.81375  11.19135 WT00 774    0.00000
 2391  774 TIP3 H1    -0.75930  -4.43570  10.39895 WT00 774    0.00000
 2392  774 TIP3 H2    -0.43592  -5.12831  11.69194 WT00 774    0.00000
 2393  775 TIP3 OH2   -9.23631   4.44919  15.21495 WT00 775    0.00000
 2394  775 TIP3 H1    -8.88363   4.94837  15.97220 WT00 775    0.00000
 2395  775 TIP3 H2    -8.52305   3.82578  15.04119 WT00 775    0.00000
 2396  776 TIP3 OH2    8.21594  -5.04411  14.55255 WT00 776    0.00000
 2397  776 TIP3 H1     7.30812  -5.03844  14.88825 WT00 776    0.00000
 2398  776 TIP3 H2     8.07698  -5.07843  13.58948 WT00 776    0.00000
 2399  777 TIP3 OH2   -6.86036  -6.58555  15.52435 WT00 777    0.00000
 2400  777 TIP3 H1    -6.21917  -7.30716  15.51725 WT00 777    0.00000
 2401  777 TIP3 H2    -7.60975  -7.04578  15.09017 WT00 777    0.00000
 2402  778 TIP3 OH2   -2.16076   5.72083  12.80018 WT00 778    0.00000
 2403  778 TIP3 H1    -2.12787   5.09897  13.55643 WT00 778    0.00000
 2404  778 TIP3 H2    -3.08150   5.61504  12.48923 WT00 778    0.00000
 2405  779 TIP3 OH2    1.62607   6.73524  14.84002 WT00 779    0.00000
 2406  779 TIP3 H1     1.36445   6.48667  13.92648 WT00 779    0.00000
 2407  779 TIP3 H2     2.18178   7.52090  14.69442 WT00 779    0.00000
 2408  780 TIP3 OH2    1.14859  -0.39337   9.48306 WT00 780    0.00000
 2409  780 TIP3 H1     0.22856  -0.08660   9.34320 WT00 780    0.00000
 2410  780 TIP3 H2     1.64827   0.41517   9.25696 WT00 780    0.00000
 2411  781 TIP3 OH2   -8.54128  -0.61598  15.25819 WT00 781    0.00000
 2412  781 TIP3 H1    -8.08666  -1.38021  15.64491 WT00 781    0.00000
 2413  781 TIP3 H2    -8.98532  -1.05290  14.49869 WT00 781    0.00000
 2414  782 TIP3 OH2    6.23768  -7.88275  16.47132 WT00 782    0.00000
 2415  782 TIP3 H1     6.58935  -8.74505  16.74163 WT00 782    0.00000
 2416  782 TIP3 H2     6.48075  -7.87188  15.52293 WT00 782    0.00000
 2417  783 TIP3 OH2    3.90386  -2.88749  12.93286 WT00 783    0.00000
 2418  783 TIP3 H1     3.88990  -3.68696  12.39065 WT00 783    0.00000
 2419  783 TIP3 H2     2.98645  -2.88608  13.27170 WT00 783    0.00000
 2420  784 TIP3 OH2   -2.10405   9.37708  12.14754 WT00 784    0.00000
 2421  784 TIP3 H1    -2.72688  10.11838  12.07467 WT00 784    0.00000
 2422  784 TIP3 H2    -2.68808   8.66729  12.46019 WT00 784    0.00000
 2423  785 TIP3 OH2   -2.65456  -6.02206  15.05081 WT00 785    0.00000
 2424  785 TIP3 H1    -3.02395  -5.14161  14.88169 WT00 785    0.00000
 2425  785 TIP3 H2    -1.70642  -5.88107  14.84056 WT00 785    0.00000
 2426  786 TIP3 OH2    7.35850  -2.13258  15.73941 WT00 786    0.00000
 2427  786 TIP3 H1     6.82254  -2.88288  16.04094 WT00 786    0.00000
 2428  786 TIP3 H2     7.03464  -1.97392  14.83077 WT00 786    0.00000
 2429  787 TIP3 OH2   -6.07022  -9.04621  10.52056 WT00 787    0.00000
 2430  787 TIP3 H1    -6.47460  -8.26662  10.11780 WT00 787    0.00000
 2431  787 TIP3 H2    -6.86162  -9.62043  10.64550 WT00 787    0.00000
 2432  788 TIP3 OH2    3.90804  -5.91747  12.61971 WT00 788    0.00000
 2433  788 TIP3 H1     3.24536  -6.44064  13.12260 WT00 788    0.00000
 2434  788 TIP3 H2     4.48395  -5.62331  13.35957 WT00 788    0.00000
 2435  789 TIP3 OH2    5.59495  10.45761 -12.72467 WT00 789    0.00000
 2436  789 TIP3 H1     6.36375  10.74072 -13.24904 WT00 789    0.00000
 2437  789 TIP3 H2     5.55852  11.17528 -12.06468 WT00 789    0.00000
 2438  790 TIP3 OH2    2.37547  15.93970 -16.71112 WT00 790    0.00000
 2439  790 TIP3 H1     2.86792  15.40592 -16.07066 WT00 790    0.00000
 2440  790 TIP3 H2     2.12145  16.72118 -16.19422 WT00 790    0.00000
 2441  791 TIP3 OH2   -4.55253  14.70761 -10.51966 WT00 791    0.00000
 2442  791 TIP3 H1    -5.05651  14.53204  -9.70712 WT00 791    0.00000
 2443  791 TIP3 H2    -5.04352  14.18127 -11.17443 WT00 791    0.00000
 2444  792 TIP3 OH2   -9.38965  15.81751 -15.44490 WT00 792    0.00000
 2445  792 TIP3 H1    -9.16232  16.75058 -15.58566 WT00 792    0.00000
 2446  792 TIP3 H2    -9.21847  15.43952 -16.32116 WT00 792    0.00000
 2447  793 TIP3 OH2    6.64979  14.31889 -15.47807 WT00 793    0.00000
 2448  793 TIP3 H1     5.90444  14.71309 -14.99879 WT00 793    0.00000
 2449  793 TIP3 H2     7.33805  15.00531 -15.46884 WT00 793    0.00000
 2450  794 TIP3 OH2   -6.96884  15.04030 -14.14701 WT00 794    0.00000
 2451  794 TIP3 H1    -7.84997  15.15427 -14.55821 WT00 794    0.00000
 2452  794 TIP3 H2    -6.68945  15.96527 -14.06011 WT00 794    0.00000
 2453  795 TIP3 OH2   -4.88443  13.60567 -15.75054 WT00 795    0.00000
 2454  795 TIP3 H1    -4.83883  13.73234 -16.71145 WT00 795    0.00000
 2455  795 TIP3 H2    -5.57238  14.25318 -15.50407 WT00 795    0.00000
 2456  796 TIP3 OH2    3.09297  15.11827 -11.89588 WT00 796    0.00000
 2457  796 TIP3 H1     3.38060  16.05335 -11.92077 WT00 796    0.00000
 2458  796 TIP3 H2     2.98968  15.04502 -10.92458 WT00 796    0.00000
 2459  797 TIP3 OH2   -3.69676  11.27975 -10.66664 WT00 797    0.00000
 2460  797 TIP3 H1    -4.60115  11.07270 -10.96623 WT00 797    0.00000
 2461  797 TIP3 H2    -3.83187  11.59094  -9.74967 WT00 797    0.00000
 2462  798 TIP3 OH2    4.10581  12.13379 -15.29190 WT00 798    0.00000
 2463  798 TIP3 H1     4.89628  11.64314 -15.59311 WT00 798    0.00000
 2464  798 TIP3 H2     3.60852  11.43023 -14.84317 WT00 798    0.00000
 2465  799 TIP3 OH2   -5.70914  10.36260 -12.47368 WT00 799    0.00000
 2466  799 TIP3 H1    -6.00908   9.43617 -12.48382 WT00 799    0.00000
 2467  799 TIP3 H2    -5.66356  10.51379 -13.44273 WT00 799    0.00000
 2468  800 TIP3 OH2    3.87260  14.75297 -14.54948 WT00 800    0.00000
 2469  800 TIP3 H1     3.79604  14.62244 -13.58234 WT00 800    0.00000
 2470  800 TIP3 H2     3.95685  13.81699 -14.84922 WT00 800    0.00000
 2471  801 TIP3 OH2    7.58979  11.98511 -14.25944 WT00 801    0.00000
 2472  801 TIP3 H1     7.39634  12.93041 -14.40898 WT00 801    0.00000
 2473  801 TIP3 H2     7.35283  11.64452 -15.13761 WT00 801    0.00000
 2474  802 TIP3 OH2   -2.99397   9.65713 -15.90173 WT00 802    0.00000
 2475  802 TIP3 H1    -2.66436   8.81446 -16.25196 WT00 802    0.00000
 2476  802 TIP3 H2    -2.19942  10.21249 -15.99041 WT00 802    0.00000
 2477  803 TIP3 OH2   -9.10958  10.70425 -12.57646 WT00 803    0.00000
 2478  803 TIP3 H1    -9.26787  11.02740 -13.47979 WT00 803    0.00000
 2479  803 TIP3 H2    -9.51578  11.44715 -12.07636 WT00 803    0.00000
 2480  804 TIP3 OH2    2.38430   9.91639 -14.40091 WT00 804    0.00000
 2481  804 TIP3 H1     1.92158  10.46612 -13.72864 WT00 804    0.00000
 2482  804 TIP3 H2     2.16688   9.03917 -14.01510 WT00 804    0.00000
 2483  805 TIP3 OH2   -1.75845  11.83788 -12.49825 WT00 805    0.00000
 2484  805 TIP3 H1    -2.46381  11.75010 -11.81817 WT00 805    0.00000
 2485  805 TIP3 H2    -2.15733  12.48768 -13.11543 WT00 805    0.00000
 2486  806 TIP3 OH2   -2.64563  13.76118 -14.22456 WT00 806    0.00000
 2487  806 TIP3 H1    -3.19109  13.39519 -14.95096 WT00 806    0.00000
 2488  806 TIP3 H2    -3.20885  14.50049 -13.97643 WT00 806    0.00000
 2489  807 TIP3 OH2   -5.39390  10.91463 -15.09275 WT00 807    0.00000
 2490  807 TIP3 H1    -4.57523  10.52019 -15.44763 WT00 807    0.00000
 2491  807 TIP3 H2    -5.36218  11.82221 -15.46406 WT00 807    0.00000
 2492  808 TIP3 OH2   -0.04650  15.13362  -9.58415 WT00 808    0.00000
 2493  808 TIP3 H1     0.10539  15.15040 -10.54429 WT00 808    0.00000
 2494  808 TIP3 H2    -0.66446  15.87508  -9.50013 WT00 808    0.00000
 2495  809 TIP3 OH2    6.21292  14.39598 -12.33964 WT00 809    0.00000
 2496  809 TIP3 H1     5.64306  15.12734 -12.07987 WT00 809    0.00000
 2497  809 TIP3 H2     5.83922  13.67074 -11.79308 WT00 809    0.00000
 2498  810 TIP3 OH2    5.23575  12.43196 -10.69928 WT00 810    0.00000
 2499  810 TIP3 H1     5.53248  12.30187  -9.77681 WT00 810    0.00000
 2500  810 TIP3 H2     4.27860  12.23005 -10.60258 WT00 810    0.00000
 2501  811 TIP3 OH2    0.38420  10.54381 -16.34301 WT00 811    0.00000
 2502  811 TIP3 H1     1.04942  10.45128 -15.64443 WT00 811    0.00000
 2503  811 TIP3 H2     0.65386  11.35082 -16.79882 WT00 811    0.00000
 2504  812 TIP3 OH2   -7.63979  12.43864 -10.04092 WT00 812    0.00000
 2505  812 TIP3 H1    -8.49518  12.55364 -10.49651 WT00 812    0.00000
 2506  812 TIP3 H2    -7.03060  12.56724 -10.79653 WT00 812    0.00000
 2507  813 TIP3 OH2   -8.35052  15.43861 -11.30947 WT00 813    0.00000
 2508  813 TIP3 H1    -7.82572  14.88713 -11.90419 WT00 813    0.00000
 2509  813 TIP3 H2    -8.07343  16.32534 -11.60582 WT00 813    0.00000
 2510  814 TIP3 OH2    0.75669  10.84167 -12.36408 WT00 814    0.00000
 2511  814 TIP3 H1    -0.11234  11.29632 -12.48416 WT00 814    0.00000
 2512  814 TIP3 H2     0.43627  10.00692 -11.97440 WT00 814    0.00000
 2513  815 TIP3 OH2   -6.12753  13.18309 -12.27336 WT00 815    0.00000
 2514  815 TIP3 H1    -6.34453  13.68990 -13.08675 WT00 815    0.00000
 2515  815 TIP3 H2    -5.95207  12.28943 -12.62125 WT00 815    0.00000
 2516  816 TIP3 OH2    8.46779  12.80365 -11.27590 WT00 816    0.00000
 2517  816 TIP3 H1     8.29062  13.38687 -10.51328 WT00 816    0.00000
 2518  816 TIP3 H2     7.88536  13.20784 -11.94476 WT00 816    0.00000
 2519  817 TIP3 OH2    2.62009  11.66202 -10.30408 WT00 817    0.00000
 2520  817 TIP3 H1     2.42345  10.87467  -9.75677 WT00 817    0.00000
 2521  817 TIP3 H2     2.01812  11.51466 -11.05839 WT00 817    0.00000
 2522  818 TIP3 OH2    0.13667  15.07182 -12.38108 WT00 818    0.00000
 2523  818 TIP3 H1     1.03006  14.68811 -12.42749 WT00 818    0.00000
 2524  818 TIP3 H2    -0.44413  14.30370 -12.49875 WT00 818    0.00000
 2525  819 TIP3 OH2    2.21874  12.50012   1.14045 WT00 819    0.00000
 2526  819 TIP3 H1     2.92504  12.43120   1.81634 WT00 819    0.00000
 2527  819 TIP3 H2     2.72264  12.45934   0.31128 WT00 819    0.00000
 2528  820 TIP3 OH2   -2.46578  15.84581  -6.18442 WT00 820    0.00000
 2529  820 TIP3 H1    -1.89404  16.60594  -6.32852 WT00 820    0.00000
 2530  820 TIP3 H2    -2.07155  15.17979  -6.77729 WT00 820    0.00000
 2531  821 TIP3 OH2   -6.40855  14.41584  -8.43451 WT00 821    0.00000
 2532  821 TIP3 H1    -7.06005  13.92126  -8.96931 WT00 821    0.00000
 2533  821 TIP3 H2    -6.96928  14.82900  -7.74946 WT00 821    0.00000
 2534  822 TIP3 OH2    5.58311  10.46181   5.95090 WT00 822    0.00000
 2535  822 TIP3 H1     6.36043  10.67531   5.41534 WT00 822    0.00000
 2536  822 TIP3 H2     5.58584  11.19019   6.59851 WT00 822    0.00000
 2537  823 TIP3 OH2   -4.25149  10.16137  -1.24713 WT00 823    0.00000
 2538  823 TIP3 H1    -3.45873   9.88085  -0.76753 WT00 823    0.00000
 2539  823 TIP3 H2    -4.79723   9.35388  -1.20658 WT00 823    0.00000
 2540  824 TIP3 OH2   -2.13686  13.84276   0.11331 WT00 824    0.00000
 2541  824 TIP3 H1    -1.31804  14.10607   0.58526 WT00 824    0.00000
 2542  824 TIP3 H2    -2.01234  14.35925  -0.71244 WT00 824    0.00000
 2543  825 TIP3 OH2    5.66142  14.29785   0.40099 WT00 825    0.00000
 2544  825 TIP3 H1     5.92793  14.42611   1.33186 WT00 825    0.00000
 2545  825 TIP3 H2     6.13754  13.47539   0.19598 WT00 825    0.00000
 2546  826 TIP3 OH2    8.78052  14.58893  -9.17113 WT00 826    0.00000
 2547  826 TIP3 H1     8.71134  15.43296  -8.67808 WT00 826    0.00000
 2548  826 TIP3 H2     9.33652  14.88624  -9.93021 WT00 826    0.00000
 2549  827 TIP3 OH2    2.76933  15.88975  -9.28806 WT00 827    0.00000
 2550  827 TIP3 H1     2.36820  16.75597  -9.15268 WT00 827    0.00000
 2551  827 TIP3 H2     2.12736  15.30371  -8.84595 WT00 827    0.00000
 2552  828 TIP3 OH2    2.47117  15.99642   2.06146 WT00 828    0.00000
 2553  828 TIP3 H1     3.07492  15.43811   2.58187 WT00 828    0.00000
 2554  828 TIP3 H2     2.20769  16.66808   2.71950 WT00 828    0.00000
 2555  829 TIP3 OH2   -4.57213  14.72845   8.12713 WT00 829    0.00000
 2556  829 TIP3 H1    -5.04692  14.53631   8.95293 WT00 829    0.00000
 2557  829 TIP3 H2    -5.04647  14.16871   7.48914 WT00 829    0.00000
 2558  830 TIP3 OH2    8.94559  14.62069   1.11535 WT00 830    0.00000
 2559  830 TIP3 H1     8.31234  13.89229   1.13684 WT00 830    0.00000
 2560  830 TIP3 H2     9.78233  14.16818   0.88073 WT00 830    0.00000
 2561  831 TIP3 OH2   -8.14961  14.78100  -6.07911 WT00 831    0.00000
 2562  831 TIP3 H1    -8.04072  14.29282  -5.25040 WT00 831    0.00000
 2563  831 TIP3 H2    -9.11041  14.85032  -6.15554 WT00 831    0.00000
 2564  832 TIP3 OH2   -9.36372  15.92359   3.42288 WT00 832    0.00000
 2565  832 TIP3 H1    -9.13627  16.84634   3.23450 WT00 832    0.00000
 2566  832 TIP3 H2    -9.45672  15.54843   2.51699 WT00 832    0.00000
 2567  833 TIP3 OH2   -2.10833  11.28090   1.24873 WT00 833    0.00000
 2568  833 TIP3 H1    -1.18312  11.16679   1.55551 WT00 833    0.00000
 2569  833 TIP3 H2    -2.10451  12.18806   0.88509 WT00 833    0.00000
 2570  834 TIP3 OH2   -4.08238  10.39659  -3.97978 WT00 834    0.00000
 2571  834 TIP3 H1    -4.08669  10.24958  -3.01496 WT00 834    0.00000
 2572  834 TIP3 H2    -3.60027  11.25193  -3.99331 WT00 834    0.00000
 2573  835 TIP3 OH2   -4.40958  14.52500  -4.72716 WT00 835    0.00000
 2574  835 TIP3 H1    -4.85037  13.94213  -5.37619 WT00 835    0.00000
 2575  835 TIP3 H2    -3.91957  15.13428  -5.32765 WT00 835    0.00000
 2576  836 TIP3 OH2   -1.12674  10.16150  -9.13479 WT00 836    0.00000
 2577  836 TIP3 H1    -1.78723  10.84065  -9.35317 WT00 836    0.00000
 2578  836 TIP3 H2    -1.39461   9.95741  -8.22285 WT00 836    0.00000
 2579  837 TIP3 OH2    7.45425  12.05600  -0.11121 WT00 837    0.00000
 2580  837 TIP3 H1     8.25359  12.34962  -0.60479 WT00 837    0.00000
 2581  837 TIP3 H2     6.98502  11.59863  -0.84569 WT00 837    0.00000
 2582  838 TIP3 OH2   -0.02413  13.05470  -4.39389 WT00 838    0.00000
 2583  838 TIP3 H1     0.73672  12.45499  -4.42264 WT00 838    0.00000
 2584  838 TIP3 H2     0.38203  13.91353  -4.63238 WT00 838    0.00000
 2585  839 TIP3 OH2   -9.14930  12.91993  -1.73380 WT00 839    0.00000
 2586  839 TIP3 H1    -9.56620  13.23199  -2.56583 WT00 839    0.00000
 2587  839 TIP3 H2    -8.38299  12.41579  -2.09737 WT00 839    0.00000
 2588  840 TIP3 OH2   -4.78867  13.03214  -0.47135 WT00 840    0.00000
 2589  840 TIP3 H1    -3.90859  13.36365  -0.19999 WT00 840    0.00000
 2590  840 TIP3 H2    -4.56377  12.12851  -0.75899 WT00 840    0.00000
 2591  841 TIP3 OH2    7.80879  13.25037  -6.84225 WT00 841    0.00000
 2592  841 TIP3 H1     8.04063  13.81943  -7.60412 WT00 841    0.00000
 2593  841 TIP3 H2     7.00893  12.81553  -7.21301 WT00 841    0.00000
 2594  842 TIP3 OH2    2.14886  11.09862  -4.51421 WT00 842    0.00000
 2595  842 TIP3 H1     1.57910  10.56183  -5.09645 WT00 842    0.00000
 2596  842 TIP3 H2     2.62976  10.37424  -4.05167 WT00 842    0.00000
 2597  843 TIP3 OH2    6.61745  14.39948   3.04877 WT00 843    0.00000
 2598  843 TIP3 H1     5.86182  14.63807   3.61597 WT00 843    0.00000
 2599  843 TIP3 H2     7.27797  15.08272   3.24330 WT00 843    0.00000
 2600  844 TIP3 OH2   -6.92844  15.07102   4.45296 WT00 844    0.00000
 2601  844 TIP3 H1    -7.85273  15.21093   4.15105 WT00 844    0.00000
 2602  844 TIP3 H2    -6.68549  15.98055   4.69586 WT00 844    0.00000
 2603  845 TIP3 OH2   -9.34975   9.27084   0.48651 WT00 845    0.00000
 2604  845 TIP3 H1    -9.73925  10.09676   0.79615 WT00 845    0.00000
 2605  845 TIP3 H2    -8.71611   9.08975   1.21156 WT00 845    0.00000
 2606  846 TIP3 OH2   -5.19404  13.81195   2.62824 WT00 846    0.00000
 2607  846 TIP3 H1    -5.50245  14.00406   1.72861 WT00 846    0.00000
 2608  846 TIP3 H2    -5.84229  14.31545   3.16155 WT00 846    0.00000
 2609  847 TIP3 OH2    5.37607  13.33908  -3.76068 WT00 847    0.00000
 2610  847 TIP3 H1     5.12827  14.16909  -3.28431 WT00 847    0.00000
 2611  847 TIP3 H2     5.32192  12.69201  -3.03871 WT00 847    0.00000
 2612  848 TIP3 OH2   -7.38583  13.49668   0.32064 WT00 848    0.00000
 2613  848 TIP3 H1    -7.89998  13.23698  -0.46814 WT00 848    0.00000
 2614  848 TIP3 H2    -6.47791  13.29191   0.01410 WT00 848    0.00000
 2615  849 TIP3 OH2    7.00102  10.49068  -5.01520 WT00 849    0.00000
 2616  849 TIP3 H1     6.95231  10.06076  -5.89699 WT00 849    0.00000
 2617  849 TIP3 H2     7.13875  11.41626  -5.25705 WT00 849    0.00000
 2618  850 TIP3 OH2    3.10016  15.13067   6.77409 WT00 850    0.00000
 2619  850 TIP3 H1     3.37671  16.06916   6.76185 WT00 850    0.00000
 2620  850 TIP3 H2     2.99422  15.04039   7.74312 WT00 850    0.00000
 2621  851 TIP3 OH2   -3.70630  11.30500   7.96929 WT00 851    0.00000
 2622  851 TIP3 H1    -4.61870  11.10354   7.70645 WT00 851    0.00000
 2623  851 TIP3 H2    -3.80214  11.59450   8.89920 WT00 851    0.00000
 2624  852 TIP3 OH2   -8.23689  10.41536  -4.72439 WT00 852    0.00000
 2625  852 TIP3 H1    -8.34148  10.80450  -5.61615 WT00 852    0.00000
 2626  852 TIP3 H2    -8.85107   9.66495  -4.75619 WT00 852    0.00000
 2627  853 TIP3 OH2    3.95637  12.15261   3.30440 WT00 853    0.00000
 2628  853 TIP3 H1     4.82505  11.78720   3.03135 WT00 853    0.00000
 2629  853 TIP3 H2     3.55908  11.38720   3.76846 WT00 853    0.00000
 2630  854 TIP3 OH2   -5.69771  10.45540   5.97028 WT00 854    0.00000
 2631  854 TIP3 H1    -5.94926   9.51898   6.04427 WT00 854    0.00000
 2632  854 TIP3 H2    -5.75493  10.55531   4.99793 WT00 854    0.00000
 2633  855 TIP3 OH2    3.94716  14.73117   4.14550 WT00 855    0.00000
 2634  855 TIP3 H1     3.83136  14.60043   5.10934 WT00 855    0.00000
 2635  855 TIP3 H2     3.93114  13.79479   3.83598 WT00 855    0.00000
 2636  856 TIP3 OH2    7.67044  12.00432   4.35090 WT00 856    0.00000
 2637  856 TIP3 H1     7.45645  12.93721   4.18474 WT00 856    0.00000
 2638  856 TIP3 H2     7.23534  11.59844   3.57160 WT00 856    0.00000
 2639  857 TIP3 OH2    1.88101  13.39298  -7.80531 WT00 857    0.00000
 2640  857 TIP3 H1     2.63791  13.15296  -7.24390 WT00 857    0.00000
 2641  857 TIP3 H2     2.05661  12.90521  -8.62296 WT00 857    0.00000
 2642  858 TIP3 OH2    0.99167  15.54402  -5.18506 WT00 858    0.00000
 2643  858 TIP3 H1     0.77996  16.31491  -4.64452 WT00 858    0.00000
 2644  858 TIP3 H2     0.85291  15.89160  -6.08029 WT00 858    0.00000
 2645  859 TIP3 OH2   -3.28440   9.51962   2.92175 WT00 859    0.00000
 2646  859 TIP3 H1    -3.00307   8.73648   2.42325 WT00 859    0.00000
 2647  859 TIP3 H2    -2.83591  10.21691   2.38841 WT00 859    0.00000
 2648  860 TIP3 OH2   -6.13696  14.76007  -2.54629 WT00 860    0.00000
 2649  860 TIP3 H1    -5.65940  14.17186  -1.94037 WT00 860    0.00000
 2650  860 TIP3 H2    -5.53985  14.75180  -3.32154 WT00 860    0.00000
 2651  861 TIP3 OH2    2.14182  12.45434  -1.82208 WT00 861    0.00000
 2652  861 TIP3 H1     1.37918  11.94569  -1.50930 WT00 861    0.00000
 2653  861 TIP3 H2     2.26587  12.06535  -2.70200 WT00 861    0.00000
 2654  862 TIP3 OH2    5.73485  11.81835  -7.96555 WT00 862    0.00000
 2655  862 TIP3 H1     4.97656  11.96707  -7.36511 WT00 862    0.00000
 2656  862 TIP3 H2     5.81840  10.84915  -7.96852 WT00 862    0.00000
 2657  863 TIP3 OH2   -9.13407  10.73044   6.03524 WT00 863    0.00000
 2658  863 TIP3 H1    -9.43587  11.10429   5.18629 WT00 863    0.00000
 2659  863 TIP3 H2    -9.48995  11.43306   6.62228 WT00 863    0.00000
 2660  864 TIP3 OH2   -8.51262  11.75254  -7.12743 WT00 864    0.00000
 2661  864 TIP3 H1    -9.30367  12.29846  -6.95297 WT00 864    0.00000
 2662  864 TIP3 H2    -8.46294  11.79849  -8.09539 WT00 864    0.00000
 2663  865 TIP3 OH2    1.91687   9.50341  -8.72335 WT00 865    0.00000
 2664  865 TIP3 H1     1.47238   9.52861  -7.85318 WT00 865    0.00000
 2665  865 TIP3 H2     1.24474   9.05413  -9.25881 WT00 865    0.00000
 2666  866 TIP3 OH2    2.28661  10.03137   4.25223 WT00 866    0.00000
 2667  866 TIP3 H1     1.81529  10.46749   4.99514 WT00 866    0.00000
 2668  866 TIP3 H2     2.24861   9.10670   4.57305 WT00 866    0.00000
 2669  867 TIP3 OH2   -3.30277  11.95793  -7.92483 WT00 867    0.00000
 2670  867 TIP3 H1    -4.05430  12.22406  -7.35639 WT00 867    0.00000
 2671  867 TIP3 H2    -2.65802  12.67855  -7.75561 WT00 867    0.00000
 2672  868 TIP3 OH2   -8.06705  16.38773  -1.37276 WT00 868    0.00000
 2673  868 TIP3 H1    -8.46391  15.60592  -0.97409 WT00 868    0.00000
 2674  868 TIP3 H2    -7.33054  15.97681  -1.87625 WT00 868    0.00000
 2675  869 TIP3 OH2   -1.76614  11.96755   6.14736 WT00 869    0.00000
 2676  869 TIP3 H1    -2.47181  11.81839   6.81576 WT00 869    0.00000
 2677  869 TIP3 H2    -2.24535  12.48082   5.46320 WT00 869    0.00000
 2678  870 TIP3 OH2   -2.93357  13.63039   4.26298 WT00 870    0.00000
 2679  870 TIP3 H1    -3.48715  13.36344   3.50579 WT00 870    0.00000
 2680  870 TIP3 H2    -3.41395  14.40899   4.55325 WT00 870    0.00000
 2681  871 TIP3 OH2   -5.64765  10.94199   3.25074 WT00 871    0.00000
 2682  871 TIP3 H1    -4.81138  10.46024   3.07177 WT00 871    0.00000
 2683  871 TIP3 H2    -5.47881  11.80949   2.83928 WT00 871    0.00000
 2684  872 TIP3 OH2   -0.04527  15.13858   9.08069 WT00 872    0.00000
 2685  872 TIP3 H1     0.09735  15.16955   8.12015 WT00 872    0.00000
 2686  872 TIP3 H2    -0.65999  15.87994   9.18274 WT00 872    0.00000
 2687  873 TIP3 OH2    6.21228  14.40251   6.28307 WT00 873    0.00000
 2688  873 TIP3 H1     5.64582  15.13008   6.56402 WT00 873    0.00000
 2689  873 TIP3 H2     5.85241  13.67742   6.84120 WT00 873    0.00000
 2690  874 TIP3 OH2   -5.60884  12.67675  -6.50076 WT00 874    0.00000
 2691  874 TIP3 H1    -5.86978  13.29723  -7.21339 WT00 874    0.00000
 2692  874 TIP3 H2    -6.44909  12.21783  -6.34228 WT00 874    0.00000
 2693  875 TIP3 OH2   -1.16762  13.73714  -7.49971 WT00 875    0.00000
 2694  875 TIP3 H1    -0.68008  14.06838  -8.28633 WT00 875    0.00000
 2695  875 TIP3 H2    -0.42161  13.50123  -6.92934 WT00 875    0.00000
 2696  876 TIP3 OH2    5.24591  12.45990   7.95582 WT00 876    0.00000
 2697  876 TIP3 H1     5.53088  12.30803   8.87985 WT00 876    0.00000
 2698  876 TIP3 H2     4.29130  12.23795   8.03814 WT00 876    0.00000
 2699  877 TIP3 OH2    0.45455  10.70551   2.18073 WT00 877    0.00000
 2700  877 TIP3 H1     0.93539  10.49261   3.00098 WT00 877    0.00000
 2701  877 TIP3 H2     1.05916  11.36305   1.77905 WT00 877    0.00000
 2702  878 TIP3 OH2   -7.63887  12.45304   8.61726 WT00 878    0.00000
 2703  878 TIP3 H1    -8.50014  12.56406   8.17192 WT00 878    0.00000
 2704  878 TIP3 H2    -7.03750  12.58324   7.85631 WT00 878    0.00000
 2705  879 TIP3 OH2    8.15358  13.60766  -4.08347 WT00 879    0.00000
 2706  879 TIP3 H1     7.21322  13.67981  -3.83245 WT00 879    0.00000
 2707  879 TIP3 H2     8.06219  13.51255  -5.04822 WT00 879    0.00000
 2708  880 TIP3 OH2   -7.00198  11.50275  -2.58371 WT00 880    0.00000
 2709  880 TIP3 H1    -6.07675  11.25259  -2.68289 WT00 880    0.00000
 2710  880 TIP3 H2    -7.40451  11.08442  -3.37866 WT00 880    0.00000
 2711  881 TIP3 OH2   -1.45136  15.68679  -1.84047 WT00 881    0.00000
 2712  881 TIP3 H1    -1.55915  15.72611  -2.79916 WT00 881    0.00000
 2713  881 TIP3 H2    -1.81243  16.54608  -1.58068 WT00 881    0.00000
 2714  882 TIP3 OH2    0.18204  10.05710  -1.74648 WT00 882    0.00000
 2715  882 TIP3 H1    -0.07327   9.32250  -2.34123 WT00 882    0.00000
 2716  882 TIP3 H2    -0.67142  10.48838  -1.62283 WT00 882    0.00000
 2717  883 TIP3 OH2    6.32731  10.82978  -2.31033 WT00 883    0.00000
 2718  883 TIP3 H1     6.58200   9.93815  -1.98708 WT00 883    0.00000
 2719  883 TIP3 H2     6.53493  10.73405  -3.26074 WT00 883    0.00000
 2720  884 TIP3 OH2    4.15303  15.61681  -6.19161 WT00 884    0.00000
 2721  884 TIP3 H1     3.87054  14.69281  -6.21682 WT00 884    0.00000
 2722  884 TIP3 H2     3.45999  16.02689  -5.65600 WT00 884    0.00000
 2723  885 TIP3 OH2   -8.36513  15.43454   7.34591 WT00 885    0.00000
 2724  885 TIP3 H1    -7.79687  14.87432   6.80319 WT00 885    0.00000
 2725  885 TIP3 H2    -8.09022  16.31923   7.04482 WT00 885    0.00000
 2726  886 TIP3 OH2   -2.68412  12.69439  -3.50356 WT00 886    0.00000
 2727  886 TIP3 H1    -3.19115  13.46892  -3.81881 WT00 886    0.00000
 2728  886 TIP3 H2    -1.77508  12.90300  -3.80008 WT00 886    0.00000
 2729  887 TIP3 OH2    2.04939  15.17113  -1.30740 WT00 887    0.00000
 2730  887 TIP3 H1     1.08705  15.22043  -1.39665 WT00 887    0.00000
 2731  887 TIP3 H2     2.19743  14.21574  -1.46630 WT00 887    0.00000
 2732  888 TIP3 OH2    4.75223  15.28770  -1.99641 WT00 888    0.00000
 2733  888 TIP3 H1     5.05694  14.96812  -1.12342 WT00 888    0.00000
 2734  888 TIP3 H2     3.82465  15.52736  -1.80824 WT00 888    0.00000
 2735  889 TIP3 OH2   -6.05880   9.60837  -8.13821 WT00 889    0.00000
 2736  889 TIP3 H1    -6.44221  10.38720  -8.56281 WT00 889    0.00000
 2737  889 TIP3 H2    -6.86049   9.04979  -8.01275 WT00 889    0.00000
 2738  890 TIP3 OH2    6.26698  11.09462   2.18647 WT00 890    0.00000
 2739  890 TIP3 H1     6.73065  11.44423   1.39842 WT00 890    0.00000
 2740  890 TIP3 H2     5.77280  10.34988   1.76830 WT00 890    0.00000
 2741  891 TIP3 OH2    0.71839  10.86889   6.34815 WT00 891    0.00000
 2742  891 TIP3 H1    -0.14862  11.32233   6.21638 WT00 891    0.00000
 2743  891 TIP3 H2     0.40450  10.01675   6.70398 WT00 891    0.00000
 2744  892 TIP3 OH2    3.90251  12.69336  -5.98921 WT00 892    0.00000
 2745  892 TIP3 H1     3.27285  12.17122  -5.44858 WT00 892    0.00000
 2746  892 TIP3 H2     4.51321  13.00221  -5.28053 WT00 892    0.00000
 2747  893 TIP3 OH2   -6.14316  13.18342   6.38055 WT00 893    0.00000
 2748  893 TIP3 H1    -6.34244  13.66038   5.54898 WT00 893    0.00000
 2749  893 TIP3 H2    -5.94609  12.27728   6.06271 WT00 893    0.00000
 2750  894 TIP3 OH2    8.47342  12.80429   7.39755 WT00 894    0.00000
 2751  894 TIP3 H1     8.29258  13.37582   8.16923 WT00 894    0.00000
 2752  894 TIP3 H2     7.89132  13.21697   6.73457 WT00 894    0.00000
 2753  895 TIP3 OH2    2.62930  11.66219   8.35095 WT00 895    0.00000
 2754  895 TIP3 H1     2.43821  10.87482   8.90039 WT00 895    0.00000
 2755  895 TIP3 H2     2.02129  11.50823   7.60160 WT00 895    0.00000
 2756  896 TIP3 OH2    0.14074  15.02802   6.28342 WT00 896    0.00000
 2757  896 TIP3 H1     1.04162  14.66048   6.26715 WT00 896    0.00000
 2758  896 TIP3 H2    -0.42206  14.23828   6.24349 WT00 896    0.00000
 2759  897 TIP3 OH2    0.22073  14.63349   1.22770 WT00 897    0.00000
 2760  897 TIP3 H1     0.86049  15.31680   1.51183 WT00 897    0.00000
 2761  897 TIP3 H2     0.84834  13.89213   1.12885 WT00 897    0.00000
 2762  898 TIP3 OH2   -2.50342  15.81566  12.48958 WT00 898    0.00000
 2763  898 TIP3 H1    -1.89753  16.55694  12.38861 WT00 898    0.00000
 2764  898 TIP3 H2    -2.10282  15.15491  11.89465 WT00 898    0.00000
 2765  899 TIP3 OH2   -6.41641  14.41836  10.23723 WT00 899    0.00000
 2766  899 TIP3 H1    -7.05911  13.90832   9.70612 WT00 899    0.00000
 2767  899 TIP3 H2    -6.98335  14.80877  10.93058 WT00 899    0.00000
 2768  900 TIP3 OH2    8.77289  14.59563   9.48713 WT00 900    0.00000
 2769  900 TIP3 H1     8.71974  15.42727  10.00173 WT00 900    0.00000
 2770  900 TIP3 H2     9.32673  14.90204   8.73084 WT00 900    0.00000
 2771  901 TIP3 OH2    2.79599  15.89779   9.40751 WT00 901    0.00000
 2772  901 TIP3 H1     2.36393  16.75135   9.53216 WT00 901    0.00000
 2773  901 TIP3 H2     2.15799  15.28877   9.82878 WT00 901    0.00000
 2774  902 TIP3 OH2   -8.16201  14.73050  12.60527 WT00 902    0.00000
 2775  902 TIP3 H1    -8.03459  14.33135  13.48047 WT00 902    0.00000
 2776  902 TIP3 H2    -9.12502  14.81430  12.58169 WT00 902    0.00000
 2777  903 TIP3 OH2   -4.27393  10.47550  14.69841 WT00 903    0.00000
 2778  903 TIP3 H1    -3.90228  10.09609  15.51099 WT00 903    0.00000
 2779  903 TIP3 H2    -3.75295  11.30727  14.65398 WT00 903    0.00000
 2780  904 TIP3 OH2   -4.47540  14.51820  13.97669 WT00 904    0.00000
 2781  904 TIP3 H1    -4.86405  13.90510  13.31876 WT00 904    0.00000
 2782  904 TIP3 H2    -3.95572  15.10964  13.38145 WT00 904    0.00000
 2783  905 TIP3 OH2   -1.13147  10.16489   9.53469 WT00 905    0.00000
 2784  905 TIP3 H1    -1.78878  10.85580   9.35036 WT00 905    0.00000
 2785  905 TIP3 H2    -1.36486   9.94776  10.45312 WT00 905    0.00000
 2786  906 TIP3 OH2    0.01977  13.03956  14.30383 WT00 906    0.00000
 2787  906 TIP3 H1     0.76955  12.43923  14.14360 WT00 906    0.00000
 2788  906 TIP3 H2     0.39781  13.89766  14.02024 WT00 906    0.00000
 2789  907 TIP3 OH2    7.78835  13.22108  11.80728 WT00 907    0.00000
 2790  907 TIP3 H1     8.02922  13.80240  11.05950 WT00 907    0.00000
 2791  907 TIP3 H2     6.99709  12.78403  11.42243 WT00 907    0.00000
 2792  908 TIP3 OH2    2.06883  11.12174  13.95551 WT00 908    0.00000
 2793  908 TIP3 H1     1.51867  10.49976  13.44081 WT00 908    0.00000
 2794  908 TIP3 H2     2.59782  10.48010  14.47397 WT00 908    0.00000
 2795  909 TIP3 OH2    5.34919  13.32286  14.89081 WT00 909    0.00000
 2796  909 TIP3 H1     5.10910  14.24431  15.06718 WT00 909    0.00000
 2797  909 TIP3 H2     5.25087  12.92388  15.76949 WT00 909    0.00000
 2798  910 TIP3 OH2    6.94772  10.50921  13.65523 WT00 910    0.00000
 2799  910 TIP3 H1     6.89820  10.10711  12.76018 WT00 910    0.00000
 2800  910 TIP3 H2     7.12420  11.43498  13.44023 WT00 910    0.00000
 2801  911 TIP3 OH2   -8.34496  10.42865  13.94645 WT00 911    0.00000
 2802  911 TIP3 H1    -8.40202  10.76396  13.02941 WT00 911    0.00000
 2803  911 TIP3 H2    -8.88559   9.62617  13.91336 WT00 911    0.00000
 2804  912 TIP3 OH2    1.92587  13.42660  10.80666 WT00 912    0.00000
 2805  912 TIP3 H1     2.63512  13.13526  11.40499 WT00 912    0.00000
 2806  912 TIP3 H2     2.06901  12.87930  10.02127 WT00 912    0.00000
 2807  913 TIP3 OH2    0.98604  15.48923  13.30853 WT00 913    0.00000
 2808  913 TIP3 H1     0.80671  16.10981  14.02530 WT00 913    0.00000
 2809  913 TIP3 H2     0.76215  16.00914  12.51798 WT00 913    0.00000
 2810  914 TIP3 OH2   -6.79557  14.98887  15.52785 WT00 914    0.00000
 2811  914 TIP3 H1    -6.90168  14.03898  15.70618 WT00 914    0.00000
 2812  914 TIP3 H2    -6.01436  15.00852  14.94425 WT00 914    0.00000
 2813  915 TIP3 OH2    5.72610  11.80860  10.66469 WT00 915    0.00000
 2814  915 TIP3 H1     4.98038  11.97383  11.28041 WT00 915    0.00000
 2815  915 TIP3 H2     5.79534  10.83864  10.67452 WT00 915    0.00000
 2816  916 TIP3 OH2   -8.51807  11.72873  11.51348 WT00 916    0.00000
 2817  916 TIP3 H1    -9.27774  12.30324  11.72947 WT00 916    0.00000
 2818  916 TIP3 H2    -8.49102  11.80328  10.54744 WT00 916    0.00000
 2819  917 TIP3 OH2    1.92084   9.50747   9.94245 WT00 917    0.00000
 2820  917 TIP3 H1     1.47300   9.50897  10.81243 WT00 917    0.00000
 2821  917 TIP3 H2     1.25845   9.05424   9.39817 WT00 917    0.00000
 2822  918 TIP3 OH2   -3.30920  11.97338  10.70307 WT00 918    0.00000
 2823  918 TIP3 H1    -4.05232  12.23255  11.28560 WT00 918    0.00000
 2824  918 TIP3 H2    -2.65279  12.67948  10.88953 WT00 918    0.00000
 2825  919 TIP3 OH2   -5.58490  12.68807  12.17530 WT00 919    0.00000
 2826  919 TIP3 H1    -5.87132  13.29433  11.46043 WT00 919    0.00000
 2827  919 TIP3 H2    -6.42052  12.23681  12.37741 WT00 919    0.00000
 2828  920 TIP3 OH2   -1.16679  13.73478  11.16887 WT00 920    0.00000
 2829  920 TIP3 H1    -0.67406  14.06575  10.38517 WT00 920    0.00000
 2830  920 TIP3 H2    -0.42283  13.53424  11.75564 WT00 920    0.00000
 2831  921 TIP3 OH2    8.18965  13.84617  14.49172 WT00 921    0.00000
 2832  921 TIP3 H1     7.33307  13.71425  14.92724 WT00 921    0.00000
 2833  921 TIP3 H2     7.98416  13.59173  13.57668 WT00 921    0.00000
 2834  922 TIP3 OH2   -6.85278  12.04514  15.55540 WT00 922    0.00000
 2835  922 TIP3 H1    -6.17711  11.36088  15.44885 WT00 922    0.00000
 2836  922 TIP3 H2    -7.60518  11.57944  15.13132 WT00 922    0.00000
 2837  923 TIP3 OH2    6.24553  10.73963  16.49229 WT00 923    0.00000
 2838  923 TIP3 H1     6.62040   9.87955  16.73712 WT00 923    0.00000
 2839  923 TIP3 H2     6.45687  10.77679  15.53756 WT00 923    0.00000
 2840  924 TIP3 OH2    4.15638  15.54707  12.87399 WT00 924    0.00000
 2841  924 TIP3 H1     3.85552  14.72053  12.47685 WT00 924    0.00000
 2842  924 TIP3 H2     3.31715  15.97973  13.08441 WT00 924    0.00000
 2843  925 TIP3 OH2   -2.66801  12.65746  15.09528 WT00 925    0.00000
 2844  925 TIP3 H1    -3.09368  13.47073  14.76579 WT00 925    0.00000
 2845  925 TIP3 H2    -1.72775  12.81750  14.86661 WT00 925    0.00000
 2846  926 TIP3 OH2   -6.06377   9.61056  10.51695 WT00 926    0.00000
 2847  926 TIP3 H1    -6.46174  10.40242  10.13202 WT00 926    0.00000
 2848  926 TIP3 H2    -6.86195   9.04549  10.64147 WT00 926    0.00000
 2849  927 TIP3 OH2    3.92028  12.65293  12.61573 WT00 927    0.00000
 2850  927 TIP3 H1     3.24998  12.16158  13.14007 WT00 927    0.00000
 2851  927 TIP3 H2     4.49953  12.97058  13.34507 WT00 927    0.00000
 2852  928 TIP3 OH2   13.93761 -15.42596 -14.24677 WT00 928    0.00000
 2853  928 TIP3 H1    14.66048 -15.73071 -14.82114 WT00 928    0.00000
 2854  928 TIP3 H2    14.44733 -14.90194 -13.60975 WT00 928    0.00000
 2855  929 TIP3 OH2   11.76143 -11.90860 -10.24414 WT00 929    0.00000
 2856  929 TIP3 H1    11.33084 -11.02788 -10.13566 WT00 929    0.00000
 2857  929 TIP3 H2    11.42393 -12.40405  -9.46870 WT00 929    0.00000
 2858  930 TIP3 OH2   10.40078  -9.58895 -10.50915 WT00 930    0.00000
 2859  930 TIP3 H1    10.36073  -8.92427 -11.22765 WT00 930    0.00000
 2860  930 TIP3 H2     9.46403  -9.69595 -10.29982 WT00 930    0.00000
 2861  931 TIP3 OH2   11.40248 -14.40042 -15.53298 WT00 931    0.00000
 2862  931 TIP3 H1    10.64692 -14.26478 -14.92715 WT00 931    0.00000
 2863  931 TIP3 H2    12.11249 -14.71388 -14.94869 WT00 931    0.00000
 2864  932 TIP3 OH2   10.25864 -12.32421 -12.50130 WT00 932    0.00000
 2865  932 TIP3 H1     9.58974 -11.60314 -12.49019 WT00 932    0.00000
 2866  932 TIP3 H2    10.77751 -12.12424 -11.69339 WT00 932    0.00000
 2867  933 TIP3 OH2   14.63744 -14.47005 -11.48616 WT00 933    0.00000
 2868  933 TIP3 H1    14.61916 -13.56058 -11.82848 WT00 933    0.00000
 2869  933 TIP3 H2    15.53679 -14.50213 -11.14131 WT00 933    0.00000
 2870  934 TIP3 OH2   10.84543  -9.29923 -15.38158 WT00 934    0.00000
 2871  934 TIP3 H1    11.43360  -8.52520 -15.43456 WT00 934    0.00000
 2872  934 TIP3 H2    11.35850  -9.86243 -14.77212 WT00 934    0.00000
 2873  935 TIP3 OH2   11.72903 -15.20999 -12.36027 WT00 935    0.00000
 2874  935 TIP3 H1    12.67099 -15.37252 -12.54037 WT00 935    0.00000
 2875  935 TIP3 H2    11.75199 -14.28085 -12.10301 WT00 935    0.00000
 2876  936 TIP3 OH2   15.93749 -11.66043 -11.08218 WT00 936    0.00000
 2877  936 TIP3 H1    15.58489 -10.89584 -11.56941 WT00 936    0.00000
 2878  936 TIP3 H2    15.48788 -11.56305 -10.21841 WT00 936    0.00000
 2879  937 TIP3 OH2   15.28718  -9.66191 -12.81823 WT00 937    0.00000
 2880  937 TIP3 H1    14.72104  -9.57908 -13.60201 WT00 937    0.00000
 2881  937 TIP3 H2    14.87743  -8.99153 -12.23550 WT00 937    0.00000
 2882  938 TIP3 OH2   14.59943 -12.42195 -13.72222 WT00 938    0.00000
 2883  938 TIP3 H1    14.99094 -12.62021 -14.59567 WT00 938    0.00000
 2884  938 TIP3 H2    15.23674 -11.78813 -13.36144 WT00 938    0.00000
 2885  939 TIP3 OH2   15.61373 -12.57120 -16.42257 WT00 939    0.00000
 2886  939 TIP3 H1    14.75310 -12.96879 -16.68710 WT00 939    0.00000
 2887  939 TIP3 H2    15.85994 -12.19886 -17.28624 WT00 939    0.00000
 2888  940 TIP3 OH2   12.78219 -15.57827  -9.37556 WT00 940    0.00000
 2889  940 TIP3 H1    13.36841 -15.38648 -10.12579 WT00 940    0.00000
 2890  940 TIP3 H2    13.03916 -16.48130  -9.13955 WT00 940    0.00000
 2891  941 TIP3 OH2   12.31158 -10.86914 -13.63016 WT00 941    0.00000
 2892  941 TIP3 H1    13.06136 -11.49759 -13.69442 WT00 941    0.00000
 2893  941 TIP3 H2    11.58121 -11.48064 -13.41032 WT00 941    0.00000
 2894  942 TIP3 OH2   14.00235 -15.45116   4.42059 WT00 942    0.00000
 2895  942 TIP3 H1    14.83618 -15.78054   4.04094 WT00 942    0.00000
 2896  942 TIP3 H2    14.35383 -14.73977   4.97698 WT00 942    0.00000
 2897  943 TIP3 OH2   10.22386 -10.98001  -2.24171 WT00 943    0.00000
 2898  943 TIP3 H1     9.57424 -10.94797  -2.97607 WT00 943    0.00000
 2899  943 TIP3 H2     9.81569 -10.34330  -1.63233 WT00 943    0.00000
 2900  944 TIP3 OH2   14.13667 -11.21551  -9.04435 WT00 944    0.00000
 2901  944 TIP3 H1    13.34967 -11.46313  -9.57246 WT00 944    0.00000
 2902  944 TIP3 H2    13.84826 -10.35616  -8.67783 WT00 944    0.00000
 2903  945 TIP3 OH2   11.75024 -11.90749   8.40403 WT00 945    0.00000
 2904  945 TIP3 H1    11.33287 -11.02235   8.52334 WT00 945    0.00000
 2905  945 TIP3 H2    11.42298 -12.40006   9.18703 WT00 945    0.00000
 2906  946 TIP3 OH2   14.53088 -15.72157  -3.34073 WT00 946    0.00000
 2907  946 TIP3 H1    14.12260 -16.23036  -4.05546 WT00 946    0.00000
 2908  946 TIP3 H2    13.92725 -14.95296  -3.26977 WT00 946    0.00000
 2909  947 TIP3 OH2   11.56275 -12.09641  -5.07510 WT00 947    0.00000
 2910  947 TIP3 H1    12.11071 -11.28597  -5.18980 WT00 947    0.00000
 2911  947 TIP3 H2    10.89194 -11.81017  -4.43930 WT00 947    0.00000
 2912  948 TIP3 OH2   10.40728  -9.56866   8.13059 WT00 948    0.00000
 2913  948 TIP3 H1    10.33688  -8.92213   7.40067 WT00 948    0.00000
 2914  948 TIP3 H2     9.47697  -9.70339   8.35473 WT00 948    0.00000
 2915  949 TIP3 OH2   12.07901 -11.74536   0.94332 WT00 949    0.00000
 2916  949 TIP3 H1    12.59668 -12.26466   1.57875 WT00 949    0.00000
 2917  949 TIP3 H2    11.69848 -11.05289   1.52067 WT00 949    0.00000
 2918  950 TIP3 OH2   13.19196 -13.33015  -3.19561 WT00 950    0.00000
 2919  950 TIP3 H1    13.07863 -12.55732  -2.62133 WT00 950    0.00000
 2920  950 TIP3 H2    12.66810 -13.06800  -3.97745 WT00 950    0.00000
 2921  951 TIP3 OH2   11.41695 -14.57090   3.09149 WT00 951    0.00000
 2922  951 TIP3 H1    10.69293 -14.26078   3.66655 WT00 951    0.00000
 2923  951 TIP3 H2    12.15464 -14.70397   3.71150 WT00 951    0.00000
 2924  952 TIP3 OH2   10.73833 -13.89349  -8.53425 WT00 952    0.00000
 2925  952 TIP3 H1    11.44893 -14.55685  -8.67293 WT00 952    0.00000
 2926  952 TIP3 H2    10.12926 -14.10164  -9.26971 WT00 952    0.00000
 2927  953 TIP3 OH2   14.01878 -13.22174  -7.07092 WT00 953    0.00000
 2928  953 TIP3 H1    14.18420 -12.64748  -7.84545 WT00 953    0.00000
 2929  953 TIP3 H2    13.19946 -12.83916  -6.72420 WT00 953    0.00000
 2930  954 TIP3 OH2   13.18008 -15.89896  -6.34045 WT00 954    0.00000
 2931  954 TIP3 H1    13.50742 -15.10347  -6.79297 WT00 954    0.00000
 2932  954 TIP3 H2    12.28535 -15.62850  -6.08057 WT00 954    0.00000
 2933  955 TIP3 OH2   10.64674 -10.90421  -7.60734 WT00 955    0.00000
 2934  955 TIP3 H1     9.80661 -11.18230  -8.01755 WT00 955    0.00000
 2935  955 TIP3 H2    10.78638 -11.59713  -6.93900 WT00 955    0.00000
 2936  956 TIP3 OH2   10.26267 -12.35176   6.15139 WT00 956    0.00000
 2937  956 TIP3 H1     9.57949 -11.64121   6.16446 WT00 956    0.00000
 2938  956 TIP3 H2    10.76674 -12.14810   6.96909 WT00 956    0.00000
 2939  957 TIP3 OH2   14.61131 -14.46550   7.19669 WT00 957    0.00000
 2940  957 TIP3 H1    14.59330 -13.57648   6.79714 WT00 957    0.00000
 2941  957 TIP3 H2    15.51608 -14.47612   7.52885 WT00 957    0.00000
 2942  958 TIP3 OH2   10.48310 -15.50680  -5.51110 WT00 958    0.00000
 2943  958 TIP3 H1    10.62015 -16.46740  -5.61862 WT00 958    0.00000
 2944  958 TIP3 H2     9.89198 -15.32432  -6.26040 WT00 958    0.00000
 2945  959 TIP3 OH2   12.93883 -10.97621  -1.56322 WT00 959    0.00000
 2946  959 TIP3 H1    12.75565 -11.30853  -0.65491 WT00 959    0.00000
 2947  959 TIP3 H2    12.01880 -10.85579  -1.88244 WT00 959    0.00000
 2948  960 TIP3 OH2   13.27789 -10.05970  -5.60114 WT00 960    0.00000
 2949  960 TIP3 H1    13.66253  -9.36569  -5.03154 WT00 960    0.00000
 2950  960 TIP3 H2    13.08937  -9.56802  -6.42317 WT00 960    0.00000
 2951  961 TIP3 OH2   11.12042  -9.67423   2.65083 WT00 961    0.00000
 2952  961 TIP3 H1    11.63484  -8.85026   2.78184 WT00 961    0.00000
 2953  961 TIP3 H2    11.29296 -10.10108   3.51248 WT00 961    0.00000
 2954  962 TIP3 OH2   11.75628 -15.22752   6.27054 WT00 962    0.00000
 2955  962 TIP3 H1    12.71465 -15.36870   6.18305 WT00 962    0.00000
 2956  962 TIP3 H2    11.73711 -14.30878   6.56552 WT00 962    0.00000
 2957  963 TIP3 OH2   10.02424 -13.13290  -0.36074 WT00 963    0.00000
 2958  963 TIP3 H1    10.84197 -12.85857   0.09516 WT00 963    0.00000
 2959  963 TIP3 H2     9.97271 -12.45934  -1.05995 WT00 963    0.00000
 2960  964 TIP3 OH2    9.39088 -14.14889  -3.23154 WT00 964    0.00000
 2961  964 TIP3 H1     9.90873 -14.21821  -2.41113 WT00 964    0.00000
 2962  964 TIP3 H2     9.97187 -14.61712  -3.86598 WT00 964    0.00000
 2963  965 TIP3 OH2   15.94206 -11.66748   7.60126 WT00 965    0.00000
 2964  965 TIP3 H1    15.60027 -10.92610   7.07125 WT00 965    0.00000
 2965  965 TIP3 H2    15.46960 -11.53873   8.44775 WT00 965    0.00000
 2966  966 TIP3 OH2   15.26121  -9.72229   5.78991 WT00 966    0.00000
 2967  966 TIP3 H1    14.90285  -9.51812   4.90977 WT00 966    0.00000
 2968  966 TIP3 H2    14.83811  -9.02352   6.32699 WT00 966    0.00000
 2969  967 TIP3 OH2   15.90304 -12.45017  -5.19157 WT00 967    0.00000
 2970  967 TIP3 H1    16.55856 -13.14230  -5.37788 WT00 967    0.00000
 2971  967 TIP3 H2    15.16722 -12.74783  -5.76270 WT00 967    0.00000
 2972  968 TIP3 OH2   14.65575 -14.22709   0.07407 WT00 968    0.00000
 2973  968 TIP3 H1    14.73733 -14.28898  -0.88556 WT00 968    0.00000
 2974  968 TIP3 H2    13.84325 -14.76563   0.22475 WT00 968    0.00000
 2975  969 TIP3 OH2   14.48752 -12.49879   5.04438 WT00 969    0.00000
 2976  969 TIP3 H1    14.62049 -12.61466   4.07440 WT00 969    0.00000
 2977  969 TIP3 H2    15.14046 -11.81097   5.25468 WT00 969    0.00000
 2978  970 TIP3 OH2   14.78145 -12.68724   2.33276 WT00 970    0.00000
 2979  970 TIP3 H1    14.59782 -13.33551   1.61684 WT00 970    0.00000
 2980  970 TIP3 H2    15.67502 -12.41945   2.05195 WT00 970    0.00000
 2981  971 TIP3 OH2   16.53768  -9.85223  -6.95099 WT00 971    0.00000
 2982  971 TIP3 H1    16.39762  -8.94644  -6.63660 WT00 971    0.00000
 2983  971 TIP3 H2    15.95644 -10.35844  -6.36160 WT00 971    0.00000
 2984  972 TIP3 OH2   12.79410 -15.58690   9.31436 WT00 972    0.00000
 2985  972 TIP3 H1    13.38902 -15.37697   8.57512 WT00 972    0.00000
 2986  972 TIP3 H2    13.02925 -16.50435   9.51503 WT00 972    0.00000
 2987  973 TIP3 OH2   12.29781 -15.42151   0.61672 WT00 973    0.00000
 2988  973 TIP3 H1    11.86515 -15.14088   1.44916 WT00 973    0.00000
 2989  973 TIP3 H2    11.54607 -15.65596   0.04177 WT00 973    0.00000
 2990  974 TIP3 OH2   12.24137 -10.85099   4.96282 WT00 974    0.00000
 2991  974 TIP3 H1    13.02280 -11.43977   5.00193 WT00 974    0.00000
 2992  974 TIP3 H2    11.54918 -11.45168   5.30024 WT00 974    0.00000
 2993  975 TIP3 OH2   15.78925 -11.51686  -2.03882 WT00 975    0.00000
 2994  975 TIP3 H1    14.83324 -11.53432  -2.19680 WT00 975    0.00000
 2995  975 TIP3 H2    16.13506 -11.15145  -2.86839 WT00 975    0.00000
 2996  976 TIP3 OH2   10.08943 -11.43077  16.04218 WT00 976    0.00000
 2997  976 TIP3 H1     9.37080 -11.10429  15.46504 WT00 976    0.00000
 2998  976 TIP3 H2    10.26053 -10.64017  16.59776 WT00 976    0.00000
 2999  977 TIP3 OH2   14.12630 -11.21075   9.62464 WT00 977    0.00000
 3000  977 TIP3 H1    13.35043 -11.46902   9.08672 WT00 977    0.00000
 3001  977 TIP3 H2    13.82146 -10.35227   9.98143 WT00 977    0.00000
 3002  978 TIP3 OH2   14.54946 -15.73245  15.30087 WT00 978    0.00000
 3003  978 TIP3 H1    14.21415 -16.17036  14.50454 WT00 978    0.00000
 3004  978 TIP3 H2    13.89574 -15.02028  15.41816 WT00 978    0.00000
 3005  979 TIP3 OH2   11.47806 -12.06389  13.59046 WT00 979    0.00000
 3006  979 TIP3 H1    12.05431 -11.27163  13.52376 WT00 979    0.00000
 3007  979 TIP3 H2    10.93610 -11.86484  14.37960 WT00 979    0.00000
 3008  980 TIP3 OH2   13.22363 -13.23468  15.43754 WT00 980    0.00000
 3009  980 TIP3 H1    12.52559 -13.10058  16.10041 WT00 980    0.00000
 3010  980 TIP3 H2    12.73312 -13.03878  14.61635 WT00 980    0.00000
 3011  981 TIP3 OH2   10.72760 -13.87307  10.10986 WT00 981    0.00000
 3012  981 TIP3 H1    11.42950 -14.55100  10.01750 WT00 981    0.00000
 3013  981 TIP3 H2    10.12411 -14.10533   9.37826 WT00 981    0.00000
 3014  982 TIP3 OH2   14.06529 -13.20621  11.61638 WT00 982    0.00000
 3015  982 TIP3 H1    14.21511 -12.63945  10.83336 WT00 982    0.00000
 3016  982 TIP3 H2    13.23001 -12.84390  11.94638 WT00 982    0.00000
 3017  983 TIP3 OH2   13.24906 -15.92953  12.42479 WT00 983    0.00000
 3018  983 TIP3 H1    13.53233 -15.15872  11.90769 WT00 983    0.00000
 3019  983 TIP3 H2    12.31709 -15.70967  12.60686 WT00 983    0.00000
 3020  984 TIP3 OH2   10.64754 -10.89998  11.05383 WT00 984    0.00000
 3021  984 TIP3 H1     9.81083 -11.20472  10.65716 WT00 984    0.00000
 3022  984 TIP3 H2    10.78802 -11.55435  11.76348 WT00 984    0.00000
 3023  985 TIP3 OH2   10.57053 -15.53397  13.04341 WT00 985    0.00000
 3024  985 TIP3 H1    10.63986 -16.50637  13.06343 WT00 985    0.00000
 3025  985 TIP3 H2     9.91399 -15.41113  12.33804 WT00 985    0.00000
 3026  986 TIP3 OH2   13.30790 -10.09297  13.01127 WT00 986    0.00000
 3027  986 TIP3 H1    13.59869  -9.35469  13.58188 WT00 986    0.00000
 3028  986 TIP3 H2    13.06554  -9.62073  12.19222 WT00 986    0.00000
 3029  987 TIP3 OH2    9.34488 -14.30612  15.27505 WT00 987    0.00000
 3030  987 TIP3 H1     9.87090 -13.94025  16.00703 WT00 987    0.00000
 3031  987 TIP3 H2    10.03511 -14.68456  14.69834 WT00 987    0.00000
 3032  988 TIP3 OH2   15.93377 -12.50493  13.58232 WT00 988    0.00000
 3033  988 TIP3 H1    16.54265 -13.24261  13.42252 WT00 988    0.00000
 3034  988 TIP3 H2    15.20400 -12.74488  12.97693 WT00 988    0.00000
 3035  989 TIP3 OH2   16.53614  -9.87738  11.75468 WT00 989    0.00000
 3036  989 TIP3 H1    16.28350  -8.95347  11.89140 WT00 989    0.00000
 3037  989 TIP3 H2    15.90060 -10.34122  12.32178 WT00 989    0.00000
 3038  990 TIP3 OH2    9.61477   1.33018 -15.01862 WT00 990    0.00000
 3039  990 TIP3 H1    10.06539   0.98844 -15.81099 WT00 990    0.00000
 3040  990 TIP3 H2    10.02368   2.20391 -14.99383 WT00 990    0.00000
 3041  991 TIP3 OH2   13.93177   3.36679 -14.18797 WT00 991    0.00000
 3042  991 TIP3 H1    14.37179   2.55570 -14.51417 WT00 991    0.00000
 3043  991 TIP3 H2    14.64003   3.77373 -13.67285 WT00 991    0.00000
 3044  992 TIP3 OH2   11.79904   6.77288 -10.26658 WT00 992    0.00000
 3045  992 TIP3 H1    11.34188   7.63695 -10.13778 WT00 992    0.00000
 3046  992 TIP3 H2    11.43856   6.22600  -9.53306 WT00 992    0.00000
 3047  993 TIP3 OH2   14.09001  -3.91807 -10.37777 WT00 993    0.00000
 3048  993 TIP3 H1    13.45291  -3.98016  -9.63971 WT00 993    0.00000
 3049  993 TIP3 H2    13.65980  -4.49892 -11.04012 WT00 993    0.00000
 3050  994 TIP3 OH2    9.39651  -2.93148 -15.41202 WT00 994    0.00000
 3051  994 TIP3 H1     9.20951  -1.98635 -15.48228 WT00 994    0.00000
 3052  994 TIP3 H2     9.01786  -3.24409 -16.25041 WT00 994    0.00000
 3053  995 TIP3 OH2   10.39142   9.06187 -10.50423 WT00 995    0.00000
 3054  995 TIP3 H1    10.38337   9.72632 -11.22401 WT00 995    0.00000
 3055  995 TIP3 H2     9.44948   8.98617 -10.30739 WT00 995    0.00000
 3056  996 TIP3 OH2   14.99782   0.88903 -14.94128 WT00 996    0.00000
 3057  996 TIP3 H1    15.78522   0.30775 -15.01865 WT00 996    0.00000
 3058  996 TIP3 H2    14.73907   1.01203 -15.86430 WT00 996    0.00000
 3059  997 TIP3 OH2   14.89710  -2.41920 -14.51832 WT00 997    0.00000
 3060  997 TIP3 H1    14.14894  -1.81255 -14.67872 WT00 997    0.00000
 3061  997 TIP3 H2    15.38735  -1.92908 -13.84704 WT00 997    0.00000
 3062  998 TIP3 OH2   11.63858  -3.57998 -13.98410 WT00 998    0.00000
 3063  998 TIP3 H1    10.80098  -3.53774 -14.49726 WT00 998    0.00000
 3064  998 TIP3 H2    12.02504  -2.72126 -14.25215 WT00 998    0.00000
 3065  999 TIP3 OH2   13.63680  -5.13287 -15.61330 WT00 999    0.00000
 3066  999 TIP3 H1    13.91457  -5.01803 -16.53496 WT00 999    0.00000
 3067  999 TIP3 H2    13.37321  -4.23357 -15.35786 WT00 999    0.00000
 3068 1000 TIP3 OH2   11.52561   4.57844 -15.50648 WT00 1000   0.00000
 3069 1000 TIP3 H1    10.69533   4.55558 -14.99178 WT00 1000   0.00000
 3070 1000 TIP3 H2    12.12803   4.02310 -14.97862 WT00 1000   0.00000
 3071 1001 TIP3 OH2   14.67165  -7.43544 -10.70689 WT00 1001   0.00000
 3072 1001 TIP3 H1    13.75553  -7.57408 -11.00660 WT00 1001   0.00000
 3073 1001 TIP3 H2    14.57334  -7.07974  -9.80127 WT00 1001   0.00000
 3074 1002 TIP3 OH2   12.77095  -8.37335 -12.46168 WT00 1002   0.00000
 3075 1002 TIP3 H1    12.45487  -9.29208 -12.55036 WT00 1002   0.00000
 3076 1002 TIP3 H2    12.77750  -8.12093 -13.41159 WT00 1002   0.00000
 3077 1003 TIP3 OH2   10.23362   6.33858 -12.47938 WT00 1003   0.00000
 3078 1003 TIP3 H1     9.58510   7.07835 -12.48567 WT00 1003   0.00000
 3079 1003 TIP3 H2    10.79894   6.57495 -11.71256 WT00 1003   0.00000
 3080 1004 TIP3 OH2   14.65633   4.27383 -11.41716 WT00 1004   0.00000
 3081 1004 TIP3 H1    14.50086   5.08500 -11.92986 WT00 1004   0.00000
 3082 1004 TIP3 H2    15.56057   4.43439 -11.12788 WT00 1004   0.00000
 3083 1005 TIP3 OH2   15.12506  -9.18587 -16.03765 WT00 1005   0.00000
 3084 1005 TIP3 H1    15.55615  -9.95636 -16.44519 WT00 1005   0.00000
 3085 1005 TIP3 H2    15.90140  -8.74973 -15.62742 WT00 1005   0.00000
 3086 1006 TIP3 OH2   12.42591  -0.99545 -14.66552 WT00 1006   0.00000
 3087 1006 TIP3 H1    11.94990  -0.70324 -13.85870 WT00 1006   0.00000
 3088 1006 TIP3 H2    12.38373  -0.18813 -15.20061 WT00 1006   0.00000
 3089 1007 TIP3 OH2    9.51755  -7.92118 -12.54342 WT00 1007   0.00000
 3090 1007 TIP3 H1     9.34843  -7.60363 -13.44739 WT00 1007   0.00000
 3091 1007 TIP3 H2     9.13864  -7.16758 -12.04148 WT00 1007   0.00000
 3092 1008 TIP3 OH2   15.98258  -5.04172 -14.23496 WT00 1008   0.00000
 3093 1008 TIP3 H1    15.25382  -5.37241 -14.78878 WT00 1008   0.00000
 3094 1008 TIP3 H2    15.74363  -4.09614 -14.24311 WT00 1008   0.00000
 3095 1009 TIP3 OH2   10.21398   1.74960 -10.61433 WT00 1009   0.00000
 3096 1009 TIP3 H1    10.17794   2.58100 -11.11944 WT00 1009   0.00000
 3097 1009 TIP3 H2    11.08989   1.87494 -10.18930 WT00 1009   0.00000
 3098 1010 TIP3 OH2   13.08606  -7.71088 -15.01946 WT00 1010   0.00000
 3099 1010 TIP3 H1    13.81972  -8.16740 -15.47998 WT00 1010   0.00000
 3100 1010 TIP3 H2    13.17524  -6.78421 -15.34790 WT00 1010   0.00000
 3101 1011 TIP3 OH2   10.85670   9.38638 -15.38685 WT00 1011   0.00000
 3102 1011 TIP3 H1    11.44823  10.15744 -15.43699 WT00 1011   0.00000
 3103 1011 TIP3 H2    11.36261   8.81769 -14.77602 WT00 1011   0.00000
 3104 1012 TIP3 OH2   11.72076   3.59672 -12.30857 WT00 1012   0.00000
 3105 1012 TIP3 H1    12.58527   3.32271 -12.66373 WT00 1012   0.00000
 3106 1012 TIP3 H2    11.86165   4.53907 -12.17981 WT00 1012   0.00000
 3107 1013 TIP3 OH2   11.04795  -6.14846 -10.00293 WT00 1013   0.00000
 3108 1013 TIP3 H1    10.18459  -6.05053 -10.44841 WT00 1013   0.00000
 3109 1013 TIP3 H2    11.64205  -6.03969 -10.77517 WT00 1013   0.00000
 3110 1014 TIP3 OH2   15.96971   7.04058 -11.05930 WT00 1014   0.00000
 3111 1014 TIP3 H1    15.57369   7.77086 -11.56326 WT00 1014   0.00000
 3112 1014 TIP3 H2    15.49999   7.11504 -10.20452 WT00 1014   0.00000
 3113 1015 TIP3 OH2   15.30708   9.02811 -12.82151 WT00 1015   0.00000
 3114 1015 TIP3 H1    14.70220   9.10630 -13.57600 WT00 1015   0.00000
 3115 1015 TIP3 H2    14.92224   9.69719 -12.21959 WT00 1015   0.00000
 3116 1016 TIP3 OH2   14.59882   6.27304 -13.65601 WT00 1016   0.00000
 3117 1016 TIP3 H1    14.93617   6.01955 -14.53573 WT00 1016   0.00000
 3118 1016 TIP3 H2    15.26878   6.90891 -13.36647 WT00 1016   0.00000
 3119 1017 TIP3 OH2   15.60501   6.21335 -16.40469 WT00 1017   0.00000
 3120 1017 TIP3 H1    14.76537   5.75784 -16.63146 WT00 1017   0.00000
 3121 1017 TIP3 H2    15.85300   6.50561 -17.29703 WT00 1017   0.00000
 3122 1018 TIP3 OH2   10.39278  -3.22177 -11.25351 WT00 1018   0.00000
 3123 1018 TIP3 H1    10.90139  -3.70219 -11.92630 WT00 1018   0.00000
 3124 1018 TIP3 H2    10.02645  -2.50185 -11.78548 WT00 1018   0.00000
 3125 1019 TIP3 OH2   12.73287   2.46512  -9.64956 WT00 1019   0.00000
 3126 1019 TIP3 H1    13.26199   3.06774 -10.20060 WT00 1019   0.00000
 3127 1019 TIP3 H2    13.40996   1.98709  -9.15934 WT00 1019   0.00000
 3128 1020 TIP3 OH2   15.34326  -1.84044 -11.58441 WT00 1020   0.00000
 3129 1020 TIP3 H1    14.83834  -2.64988 -11.33909 WT00 1020   0.00000
 3130 1020 TIP3 H2    15.21511  -1.31645 -10.78135 WT00 1020   0.00000
 3131 1021 TIP3 OH2   11.09639  -0.37991 -12.30506 WT00 1021   0.00000
 3132 1021 TIP3 H1    10.89105   0.52373 -11.99802 WT00 1021   0.00000
 3133 1021 TIP3 H2    11.49718  -0.75350 -11.50832 WT00 1021   0.00000
 3134 1022 TIP3 OH2   12.59191  -5.45643 -12.21442 WT00 1022   0.00000
 3135 1022 TIP3 H1    12.35807  -4.89059 -12.98599 WT00 1022   0.00000
 3136 1022 TIP3 H2    12.80189  -6.29798 -12.65104 WT00 1022   0.00000
 3137 1023 TIP3 OH2   12.29643   7.79787 -13.62723 WT00 1023   0.00000
 3138 1023 TIP3 H1    13.05743   7.18213 -13.68850 WT00 1023   0.00000
 3139 1023 TIP3 H2    11.57118   7.16558 -13.46202 WT00 1023   0.00000
 3140 1024 TIP3 OH2   10.38389  -0.48753   1.32555 WT00 1024   0.00000
 3141 1024 TIP3 H1    10.79073  -1.08387   0.67935 WT00 1024   0.00000
 3142 1024 TIP3 H2    10.08745   0.23825   0.73966 WT00 1024   0.00000
 3143 1025 TIP3 OH2   13.90658  -0.89425  -4.79994 WT00 1025   0.00000
 3144 1025 TIP3 H1    13.56859  -1.26949  -3.97757 WT00 1025   0.00000
 3145 1025 TIP3 H2    13.81222  -1.63908  -5.40561 WT00 1025   0.00000
 3146 1026 TIP3 OH2   15.75940  -2.63200  -6.46330 WT00 1026   0.00000
 3147 1026 TIP3 H1    16.03759  -1.73622  -6.22874 WT00 1026   0.00000
 3148 1026 TIP3 H2    16.43132  -2.86185  -7.12872 WT00 1026   0.00000
 3149 1027 TIP3 OH2    9.66698   1.38358   3.24121 WT00 1027   0.00000
 3150 1027 TIP3 H1    10.06207   0.78160   2.58103 WT00 1027   0.00000
 3151 1027 TIP3 H2    10.21244   2.17790   3.14927 WT00 1027   0.00000
 3152 1028 TIP3 OH2   15.76214  -2.17592   1.38343 WT00 1028   0.00000
 3153 1028 TIP3 H1    16.61408  -2.62995   1.37049 WT00 1028   0.00000
 3154 1028 TIP3 H2    15.58588  -2.13931   2.34366 WT00 1028   0.00000
 3155 1029 TIP3 OH2   12.08883  -4.06427  -8.39652 WT00 1029   0.00000
 3156 1029 TIP3 H1    11.53133  -4.65427  -8.94541 WT00 1029   0.00000
 3157 1029 TIP3 H2    11.49140  -3.88809  -7.62999 WT00 1029   0.00000
 3158 1030 TIP3 OH2   13.94689   3.32854   4.39748 WT00 1030   0.00000
 3159 1030 TIP3 H1    14.45053   2.51437   4.19270 WT00 1030   0.00000
 3160 1030 TIP3 H2    14.61219   3.84022   4.87592 WT00 1030   0.00000
 3161 1031 TIP3 OH2   10.20900   7.67532  -2.24201 WT00 1031   0.00000
 3162 1031 TIP3 H1     9.55858   7.72277  -2.97584 WT00 1031   0.00000
 3163 1031 TIP3 H2     9.83709   8.34730  -1.64734 WT00 1031   0.00000
 3164 1032 TIP3 OH2   14.19603  -8.44528  -1.22887 WT00 1032   0.00000
 3165 1032 TIP3 H1    14.85855  -8.49217  -0.52409 WT00 1032   0.00000
 3166 1032 TIP3 H2    13.79895  -9.34077  -1.19387 WT00 1032   0.00000
 3167 1033 TIP3 OH2   14.14421   7.44011  -9.02211 WT00 1033   0.00000
 3168 1033 TIP3 H1    13.36795   7.19704  -9.56951 WT00 1033   0.00000
 3169 1033 TIP3 H2    13.85551   8.30753  -8.67518 WT00 1033   0.00000
 3170 1034 TIP3 OH2   11.78920   6.76676   8.37892 WT00 1034   0.00000
 3171 1034 TIP3 H1    11.34444   7.63339   8.52644 WT00 1034   0.00000
 3172 1034 TIP3 H2    11.44308   6.21827   9.12004 WT00 1034   0.00000
 3173 1035 TIP3 OH2    9.74331  -0.25990  -7.81953 WT00 1035   0.00000
 3174 1035 TIP3 H1     9.52310   0.69169  -7.82425 WT00 1035   0.00000
 3175 1035 TIP3 H2     9.10055  -0.59493  -8.48329 WT00 1035   0.00000
 3176 1036 TIP3 OH2    9.80470   1.90605  -0.11861 WT00 1036   0.00000
 3177 1036 TIP3 H1     9.01168   2.42411  -0.33178 WT00 1036   0.00000
 3178 1036 TIP3 H2    10.24273   1.84420  -0.99652 WT00 1036   0.00000
 3179 1037 TIP3 OH2   14.08861  -3.92278   8.30074 WT00 1037   0.00000
 3180 1037 TIP3 H1    13.44497  -3.97794   9.03426 WT00 1037   0.00000
 3181 1037 TIP3 H2    13.66032  -4.49950   7.63472 WT00 1037   0.00000
 3182 1038 TIP3 OH2   10.63469  -3.76086  -6.10220 WT00 1038   0.00000
 3183 1038 TIP3 H1    10.59130  -4.20726  -5.24863 WT00 1038   0.00000
 3184 1038 TIP3 H2     9.98481  -3.04000  -5.95968 WT00 1038   0.00000
 3185 1039 TIP3 OH2   13.88837   2.65082  -3.19357 WT00 1039   0.00000
 3186 1039 TIP3 H1    14.52143   2.45495  -3.90842 WT00 1039   0.00000
 3187 1039 TIP3 H2    13.76353   3.62339  -3.28013 WT00 1039   0.00000
 3188 1040 TIP3 OH2    9.44016  -2.63565   3.32072 WT00 1040   0.00000
 3189 1040 TIP3 H1     9.69478  -1.77094   2.96058 WT00 1040   0.00000
 3190 1040 TIP3 H2     9.19926  -3.10444   2.49648 WT00 1040   0.00000
 3191 1041 TIP3 OH2   11.58644   6.54443  -5.03275 WT00 1041   0.00000
 3192 1041 TIP3 H1    12.11858   7.35896  -5.18792 WT00 1041   0.00000
 3193 1041 TIP3 H2    10.89812   6.85914  -4.43011 WT00 1041   0.00000
 3194 1042 TIP3 OH2   10.40163   9.08249   8.13085 WT00 1042   0.00000
 3195 1042 TIP3 H1    10.34394   9.72744   7.39899 WT00 1042   0.00000
 3196 1042 TIP3 H2     9.47036   8.96697   8.36080 WT00 1042   0.00000
 3197 1043 TIP3 OH2   15.83483  -0.75964  -0.97576 WT00 1043   0.00000
 3198 1043 TIP3 H1    15.11275  -0.11091  -1.08673 WT00 1043   0.00000
 3199 1043 TIP3 H2    15.54326  -1.23467  -0.16914 WT00 1043   0.00000
 3200 1044 TIP3 OH2   14.47830  -8.13387  -3.96434 WT00 1044   0.00000
 3201 1044 TIP3 H1    14.46688  -8.39088  -3.02050 WT00 1044   0.00000
 3202 1044 TIP3 H2    14.62178  -7.17101  -3.88206 WT00 1044   0.00000
 3203 1045 TIP3 OH2   12.05314   6.89135   0.95144 WT00 1045   0.00000
 3204 1045 TIP3 H1    12.64055   6.43965   1.57992 WT00 1045   0.00000
 3205 1045 TIP3 H2    11.67856   7.59612   1.51846 WT00 1045   0.00000
 3206 1046 TIP3 OH2   14.00285  -3.94054  -4.90510 WT00 1046   0.00000
 3207 1046 TIP3 H1    13.59218  -4.62248  -5.48060 WT00 1046   0.00000
 3208 1046 TIP3 H2    14.60844  -3.49336  -5.54022 WT00 1046   0.00000
 3209 1047 TIP3 OH2   14.87104  -0.21988  -8.60950 WT00 1047   0.00000
 3210 1047 TIP3 H1    14.81847   0.43862  -7.90441 WT00 1047   0.00000
 3211 1047 TIP3 H2    13.92106  -0.46499  -8.70364 WT00 1047   0.00000
 3212 1048 TIP3 OH2   15.16242   0.86024   3.91625 WT00 1048   0.00000
 3213 1048 TIP3 H1    15.92072   0.30801   3.62963 WT00 1048   0.00000
 3214 1048 TIP3 H2    14.56105   0.79101   3.14340 WT00 1048   0.00000
 3215 1049 TIP3 OH2   15.06698  -2.25044   4.10360 WT00 1049   0.00000
 3216 1049 TIP3 H1    14.21994  -1.76509   4.02452 WT00 1049   0.00000
 3217 1049 TIP3 H2    15.33864  -1.99055   4.99917 WT00 1049   0.00000
 3218 1050 TIP3 OH2    9.53205  -5.72332  -1.71220 WT00 1050   0.00000
 3219 1050 TIP3 H1     9.06062  -5.44229  -2.52938 WT00 1050   0.00000
 3220 1050 TIP3 H2    10.28446  -6.21885  -2.11080 WT00 1050   0.00000
 3221 1051 TIP3 OH2   13.94310  -5.62568  -0.51581 WT00 1051   0.00000
 3222 1051 TIP3 H1    14.51753  -5.53691   0.26661 WT00 1051   0.00000
 3223 1051 TIP3 H2    13.94887  -6.58635  -0.67395 WT00 1051   0.00000
 3224 1052 TIP3 OH2   13.85501   1.11854  -0.94751 WT00 1052   0.00000
 3225 1052 TIP3 H1    12.90029   1.29422  -0.96769 WT00 1052   0.00000
 3226 1052 TIP3 H2    14.12129   1.68386  -1.70316 WT00 1052   0.00000
 3227 1053 TIP3 OH2   13.25319   5.31335  -3.19863 WT00 1053   0.00000
 3228 1053 TIP3 H1    13.14928   6.08225  -2.61541 WT00 1053   0.00000
 3229 1053 TIP3 H2    12.72306   5.59569  -3.97055 WT00 1053   0.00000
 3230 1054 TIP3 OH2   11.69789  -3.65128   4.53472 WT00 1054   0.00000
 3231 1054 TIP3 H1    10.79989  -3.48821   4.17198 WT00 1054   0.00000
 3232 1054 TIP3 H2    12.07362  -2.75297   4.40669 WT00 1054   0.00000
 3233 1055 TIP3 OH2    9.32309  -9.37937   0.47157 WT00 1055   0.00000
 3234 1055 TIP3 H1     8.90186  -8.56806   0.77958 WT00 1055   0.00000
 3235 1055 TIP3 H2     9.94013  -9.56057   1.21040 WT00 1055   0.00000
 3236 1056 TIP3 OH2   13.36899  -4.97182   2.52479 WT00 1056   0.00000
 3237 1056 TIP3 H1    12.89198  -4.66376   1.73911 WT00 1056   0.00000
 3238 1056 TIP3 H2    13.00502  -4.37699   3.20378 WT00 1056   0.00000
 3239 1057 TIP3 OH2   11.43753   4.06511   3.10304 WT00 1057   0.00000
 3240 1057 TIP3 H1    10.70053   4.34833   3.67618 WT00 1057   0.00000
 3241 1057 TIP3 H2    12.16470   3.91413   3.74096 WT00 1057   0.00000
 3242 1058 TIP3 OH2   11.30062  -5.08504   0.28515 WT00 1058   0.00000
 3243 1058 TIP3 H1    10.73344  -5.37559  -0.45864 WT00 1058   0.00000
 3244 1058 TIP3 H2    12.18282  -5.29910  -0.07347 WT00 1058   0.00000
 3245 1059 TIP3 OH2   10.74246   4.86151  -8.57871 WT00 1059   0.00000
 3246 1059 TIP3 H1    11.16591   4.01971  -8.36728 WT00 1059   0.00000
 3247 1059 TIP3 H2    10.06854   4.58245  -9.23308 WT00 1059   0.00000
 3248 1060 TIP3 OH2   14.65109  -7.49059   7.95944 WT00 1060   0.00000
 3249 1060 TIP3 H1    13.73319  -7.52750   7.65173 WT00 1060   0.00000
 3250 1060 TIP3 H2    14.58393  -7.11687   8.86073 WT00 1060   0.00000
 3251 1061 TIP3 OH2   10.44300  -8.24396  -4.70436 WT00 1061   0.00000
 3252 1061 TIP3 H1    10.31315  -7.84709  -5.58896 WT00 1061   0.00000
 3253 1061 TIP3 H2     9.82501  -8.99356  -4.72363 WT00 1061   0.00000
 3254 1062 TIP3 OH2   13.96961   5.41429  -7.07027 WT00 1062   0.00000
 3255 1062 TIP3 H1    14.20268   5.98390  -7.83307 WT00 1062   0.00000
 3256 1062 TIP3 H2    13.20087   5.88758  -6.71965 WT00 1062   0.00000
 3257 1063 TIP3 OH2   13.29236   2.68558  -6.57278 WT00 1063   0.00000
 3258 1063 TIP3 H1    13.47347   3.61895  -6.79730 WT00 1063   0.00000
 3259 1063 TIP3 H2    12.36744   2.72997  -6.25549 WT00 1063   0.00000
 3260 1064 TIP3 OH2   12.82597  -8.24009   5.91820 WT00 1064   0.00000
 3261 1064 TIP3 H1    12.51610  -9.16503   5.92264 WT00 1064   0.00000
 3262 1064 TIP3 H2    12.76376  -8.05274   4.95769 WT00 1064   0.00000
 3263 1065 TIP3 OH2   10.61195   7.78727  -7.57121 WT00 1065   0.00000
 3264 1065 TIP3 H1     9.80587   7.50239  -8.04216 WT00 1065   0.00000
 3265 1065 TIP3 H2    10.76944   7.03928  -6.97336 WT00 1065   0.00000
 3266 1066 TIP3 OH2   10.23576   6.35101   6.16037 WT00 1066   0.00000
 3267 1066 TIP3 H1     9.56083   7.06757   6.18415 WT00 1066   0.00000
 3268 1066 TIP3 H2    10.77110   6.55279   6.95831 WT00 1066   0.00000
 3269 1067 TIP3 OH2   14.59553   4.27384   7.24291 WT00 1067   0.00000
 3270 1067 TIP3 H1    14.49077   5.07907   6.70319 WT00 1067   0.00000
 3271 1067 TIP3 H2    15.51912   4.37116   7.49749 WT00 1067   0.00000
 3272 1068 TIP3 OH2   15.15481  -9.11499   2.59908 WT00 1068   0.00000
 3273 1068 TIP3 H1    15.51554  -9.78128   1.99611 WT00 1068   0.00000
 3274 1068 TIP3 H2    15.83606  -8.42117   2.53656 WT00 1068   0.00000
 3275 1069 TIP3 OH2   12.65283  -3.76051  -2.48407 WT00 1069   0.00000
 3276 1069 TIP3 H1    13.12338  -4.42589  -1.95315 WT00 1069   0.00000
 3277 1069 TIP3 H2    13.09071  -3.84710  -3.35255 WT00 1069   0.00000
 3278 1070 TIP3 OH2   10.58215   2.72242  -5.74516 WT00 1070   0.00000
 3279 1070 TIP3 H1    10.36235   1.82561  -5.47055 WT00 1070   0.00000
 3280 1070 TIP3 H2     9.91116   2.87367  -6.43981 WT00 1070   0.00000
 3281 1071 TIP3 OH2   12.95220   7.65629  -1.55628 WT00 1071   0.00000
 3282 1071 TIP3 H1    12.75148   7.33622  -0.64777 WT00 1071   0.00000
 3283 1071 TIP3 H2    12.04117   7.80503  -1.88500 WT00 1071   0.00000
 3284 1072 TIP3 OH2   12.52757  -1.08609   4.00067 WT00 1072   0.00000
 3285 1072 TIP3 H1    12.01613  -0.64813   4.71322 WT00 1072   0.00000
 3286 1072 TIP3 H2    12.53242  -0.40420   3.30428 WT00 1072   0.00000
 3287 1073 TIP3 OH2   13.28074   8.58943  -5.60490 WT00 1073   0.00000
 3288 1073 TIP3 H1    13.64878   9.29257  -5.03408 WT00 1073   0.00000
 3289 1073 TIP3 H2    13.08796   9.07966  -6.42806 WT00 1073   0.00000
 3290 1074 TIP3 OH2   11.38681   1.73745  -2.32537 WT00 1074   0.00000
 3291 1074 TIP3 H1    11.07476   0.96354  -2.84003 WT00 1074   0.00000
 3292 1074 TIP3 H2    12.18520   2.01796  -2.81709 WT00 1074   0.00000
 3293 1075 TIP3 OH2   15.30683   1.38264  -5.34084 WT00 1075   0.00000
 3294 1075 TIP3 H1    14.84672   0.56826  -5.04396 WT00 1075   0.00000
 3295 1075 TIP3 H2    14.58924   1.83327  -5.83467 WT00 1075   0.00000
 3296 1076 TIP3 OH2    9.48215  -7.89680   6.07581 WT00 1076   0.00000
 3297 1076 TIP3 H1     9.17667  -7.53119   5.22348 WT00 1076   0.00000
 3298 1076 TIP3 H2     9.15744  -7.17539   6.65600 WT00 1076   0.00000
 3299 1077 TIP3 OH2   10.16943  -6.86823  -7.09287 WT00 1077   0.00000
 3300 1077 TIP3 H1     9.38906  -6.31057  -6.89372 WT00 1077   0.00000
 3301 1077 TIP3 H2    10.15831  -6.86194  -8.06156 WT00 1077   0.00000
 3302 1078 TIP3 OH2   15.22346  -6.50927  -8.05215 WT00 1078   0.00000
 3303 1078 TIP3 H1    14.48306  -6.42037  -7.41967 WT00 1078   0.00000
 3304 1078 TIP3 H2    15.92641  -6.01175  -7.62316 WT00 1078   0.00000
 3305 1079 TIP3 OH2   12.30388  -1.10971  -8.74348 WT00 1079   0.00000
 3306 1079 TIP3 H1    12.19594  -2.07480  -8.70782 WT00 1079   0.00000
 3307 1079 TIP3 H2    11.45283  -0.79920  -8.37304 WT00 1079   0.00000
 3308 1080 TIP3 OH2   10.70607  -2.21701  -1.34358 WT00 1080   0.00000
 3309 1080 TIP3 H1    10.19309  -2.95507  -0.99293 WT00 1080   0.00000
 3310 1080 TIP3 H2    11.46999  -2.70044  -1.73390 WT00 1080   0.00000
 3311 1081 TIP3 OH2   15.60291  -5.03227   4.27815 WT00 1081   0.00000
 3312 1081 TIP3 H1    15.04070  -5.23954   3.51611 WT00 1081   0.00000
 3313 1081 TIP3 H2    15.57282  -4.06074   4.26010 WT00 1081   0.00000
 3314 1082 TIP3 OH2   10.22323   1.74315   8.02107 WT00 1082   0.00000
 3315 1082 TIP3 H1    10.13464   2.60476   7.57788 WT00 1082   0.00000
 3316 1082 TIP3 H2    11.09974   1.87985   8.44344 WT00 1082   0.00000
 3317 1083 TIP3 OH2   12.93804  -7.66735   3.24979 WT00 1083   0.00000
 3318 1083 TIP3 H1    13.73899  -8.15258   2.94781 WT00 1083   0.00000
 3319 1083 TIP3 H2    13.12527  -6.76074   2.92672 WT00 1083   0.00000
 3320 1084 TIP3 OH2   11.12075   8.98541   2.64060 WT00 1084   0.00000
 3321 1084 TIP3 H1    11.63385   9.80947   2.77651 WT00 1084   0.00000
 3322 1084 TIP3 H2    11.29483   8.55443   3.50101 WT00 1084   0.00000
 3323 1085 TIP3 OH2   11.72311   3.64357   6.30050 WT00 1085   0.00000
 3324 1085 TIP3 H1    12.60142   3.31495   6.04487 WT00 1085   0.00000
 3325 1085 TIP3 H2    11.93521   4.53304   6.59757 WT00 1085   0.00000
 3326 1086 TIP3 OH2   10.09269   5.46312  -0.48993 WT00 1086   0.00000
 3327 1086 TIP3 H1    10.84967   5.73817   0.06261 WT00 1086   0.00000
 3328 1086 TIP3 H2    10.00214   6.24450  -1.06354 WT00 1086   0.00000
 3329 1087 TIP3 OH2   12.99098  -5.92575  -6.51989 WT00 1087   0.00000
 3330 1087 TIP3 H1    12.67927  -5.34796  -7.24342 WT00 1087   0.00000
 3331 1087 TIP3 H2    12.18270  -6.43988  -6.34423 WT00 1087   0.00000
 3332 1088 TIP3 OH2    9.41265   4.49921  -3.22984 WT00 1088   0.00000
 3333 1088 TIP3 H1     9.90510   4.67052  -2.40802 WT00 1088   0.00000
 3334 1088 TIP3 H2    10.03550   3.94264  -3.72425 WT00 1088   0.00000
 3335 1089 TIP3 OH2   13.41762   0.94967   1.83375 WT00 1089   0.00000
 3336 1089 TIP3 H1    13.74995   0.74596   0.94040 WT00 1089   0.00000
 3337 1089 TIP3 H2    13.01545   1.81851   1.64524 WT00 1089   0.00000
 3338 1090 TIP3 OH2   11.04202  -6.14489   8.65447 WT00 1090   0.00000
 3339 1090 TIP3 H1    10.17488  -6.03956   8.21788 WT00 1090   0.00000
 3340 1090 TIP3 H2    11.63158  -6.01856   7.88163 WT00 1090   0.00000
 3341 1091 TIP3 OH2   15.97789   7.03853   7.61361 WT00 1091   0.00000
 3342 1091 TIP3 H1    15.58658   7.74560   7.07171 WT00 1091   0.00000
 3343 1091 TIP3 H2    15.48278   7.13077   8.45097 WT00 1091   0.00000
 3344 1092 TIP3 OH2   15.27405   8.97719   5.80758 WT00 1092   0.00000
 3345 1092 TIP3 H1    14.89293   9.16996   4.93545 WT00 1092   0.00000
 3346 1092 TIP3 H2    14.85851   9.67539   6.35042 WT00 1092   0.00000
 3347 1093 TIP3 OH2   11.70354  -7.06163  -2.63632 WT00 1093   0.00000
 3348 1093 TIP3 H1    12.52820  -7.55552  -2.58130 WT00 1093   0.00000
 3349 1093 TIP3 H2    11.25923  -7.51078  -3.39359 WT00 1093   0.00000
 3350 1094 TIP3 OH2   15.91826   6.07599  -5.16512 WT00 1094   0.00000
 3351 1094 TIP3 H1    16.62873   5.50609  -5.50951 WT00 1094   0.00000
 3352 1094 TIP3 H2    15.19108   5.84393  -5.77295 WT00 1094   0.00000
 3353 1095 TIP3 OH2   10.06939  -0.44706  -3.40403 WT00 1095   0.00000
 3354 1095 TIP3 H1    10.21677  -1.08860  -2.67323 WT00 1095   0.00000
 3355 1095 TIP3 H2     9.72758  -1.03538  -4.10926 WT00 1095   0.00000
 3356 1096 TIP3 OH2   14.59208   4.44136   0.08428 WT00 1096   0.00000
 3357 1096 TIP3 H1    14.67982   4.51756  -0.87278 WT00 1096   0.00000
 3358 1096 TIP3 H2    13.79120   3.88297   0.17339 WT00 1096   0.00000
 3359 1097 TIP3 OH2   14.49005   6.21910   5.07208 WT00 1097   0.00000
 3360 1097 TIP3 H1    14.59248   6.04275   4.10895 WT00 1097   0.00000
 3361 1097 TIP3 H2    15.17683   6.88561   5.22997 WT00 1097   0.00000
 3362 1098 TIP3 OH2   14.75954   6.03023   2.32596 WT00 1098   0.00000
 3363 1098 TIP3 H1    14.58422   5.33197   1.65909 WT00 1098   0.00000
 3364 1098 TIP3 H2    15.68304   6.22495   2.07995 WT00 1098   0.00000
 3365 1099 TIP3 OH2   16.54150   8.81490  -6.93605 WT00 1099   0.00000
 3366 1099 TIP3 H1    16.38450   9.74504  -6.71421 WT00 1099   0.00000
 3367 1099 TIP3 H2    15.91863   8.36439  -6.34756 WT00 1099   0.00000
 3368 1100 TIP3 OH2   10.40144  -3.20813   7.41208 WT00 1100   0.00000
 3369 1100 TIP3 H1    10.88622  -3.73312   6.75931 WT00 1100   0.00000
 3370 1100 TIP3 H2    10.00882  -2.52022   6.85674 WT00 1100   0.00000
 3371 1101 TIP3 OH2   15.67544  -5.61255  -3.59554 WT00 1101   0.00000
 3372 1101 TIP3 H1    15.09345  -4.87701  -3.87720 WT00 1101   0.00000
 3373 1101 TIP3 H2    16.45315  -5.46944  -4.14782 WT00 1101   0.00000
 3374 1102 TIP3 OH2   12.56749  -9.01949  -8.11993 WT00 1102   0.00000
 3375 1102 TIP3 H1    12.16069  -8.28257  -8.59317 WT00 1102   0.00000
 3376 1102 TIP3 H2    11.79059  -9.61364  -8.00008 WT00 1102   0.00000
 3377 1103 TIP3 OH2   12.74162   2.45143   8.96477 WT00 1103   0.00000
 3378 1103 TIP3 H1    13.29757   3.07617   8.46729 WT00 1103   0.00000
 3379 1103 TIP3 H2    13.38421   2.00109   9.52300 WT00 1103   0.00000
 3380 1104 TIP3 OH2   15.29979  -1.88436   6.99999 WT00 1104   0.00000
 3381 1104 TIP3 H1    14.82238  -2.66983   7.35246 WT00 1104   0.00000
 3382 1104 TIP3 H2    15.25309  -1.29386   7.76458 WT00 1104   0.00000
 3383 1105 TIP3 OH2   11.08658  -0.35376   6.31969 WT00 1105   0.00000
 3384 1105 TIP3 H1    10.87081   0.52912   6.68058 WT00 1105   0.00000
 3385 1105 TIP3 H2    11.50544  -0.76045   7.09051 WT00 1105   0.00000
 3386 1106 TIP3 OH2   12.19380   3.19096   0.67715 WT00 1106   0.00000
 3387 1106 TIP3 H1    11.90548   3.63072   1.51029 WT00 1106   0.00000
 3388 1106 TIP3 H2    11.33271   2.88432   0.33401 WT00 1106   0.00000
 3389 1107 TIP3 OH2   12.56980  -5.45844   6.45055 WT00 1107   0.00000
 3390 1107 TIP3 H1    12.36646  -4.92421   5.65159 WT00 1107   0.00000
 3391 1107 TIP3 H2    12.79325  -6.32332   6.05464 WT00 1107   0.00000
 3392 1108 TIP3 OH2   12.22926   7.81965   4.95392 WT00 1108   0.00000
 3393 1108 TIP3 H1    13.01909   7.24071   5.00077 WT00 1108   0.00000
 3394 1108 TIP3 H2    11.54314   7.20770   5.28403 WT00 1108   0.00000
 3395 1109 TIP3 OH2   15.79003   7.08366  -2.02945 WT00 1109   0.00000
 3396 1109 TIP3 H1    14.83686   7.16034  -2.18638 WT00 1109   0.00000
 3397 1109 TIP3 H2    16.16918   7.51604  -2.81213 WT00 1109   0.00000
 3398 1110 TIP3 OH2   13.87574  -0.92634  13.92986 WT00 1110   0.00000
 3399 1110 TIP3 H1    13.44652  -1.39638  14.65763 WT00 1110   0.00000
 3400 1110 TIP3 H2    13.86974  -1.59585  13.23510 WT00 1110   0.00000
 3401 1111 TIP3 OH2   15.74902  -2.62849  12.25547 WT00 1111   0.00000
 3402 1111 TIP3 H1    16.02758  -1.71867  12.42719 WT00 1111   0.00000
 3403 1111 TIP3 H2    16.34683  -2.86385  11.52375 WT00 1111   0.00000
 3404 1112 TIP3 OH2   12.07435  -4.05440  10.26734 WT00 1112   0.00000
 3405 1112 TIP3 H1    11.51570  -4.65271   9.72997 WT00 1112   0.00000
 3406 1112 TIP3 H2    11.48779  -3.88251  11.04320 WT00 1112   0.00000
 3407 1113 TIP3 OH2   10.01964   7.24368  16.07992 WT00 1113   0.00000
 3408 1113 TIP3 H1     9.34754   7.59741  15.46459 WT00 1113   0.00000
 3409 1113 TIP3 H2    10.23354   8.03904  16.61280 WT00 1113   0.00000
 3410 1114 TIP3 OH2   14.13493   7.44998   9.64101 WT00 1114   0.00000
 3411 1114 TIP3 H1    13.37108   7.18481   9.08760 WT00 1114   0.00000
 3412 1114 TIP3 H2    13.81832   8.31128   9.97998 WT00 1114   0.00000
 3413 1115 TIP3 OH2    9.75434  -0.24672  10.81813 WT00 1115   0.00000
 3414 1115 TIP3 H1     9.53377   0.70524  10.82885 WT00 1115   0.00000
 3415 1115 TIP3 H2     9.10315  -0.57519  10.15932 WT00 1115   0.00000
 3416 1116 TIP3 OH2   10.63559  -3.76648  12.57781 WT00 1116   0.00000
 3417 1116 TIP3 H1    10.55804  -4.23139  13.42188 WT00 1116   0.00000
 3418 1116 TIP3 H2     9.98660  -3.04602  12.71698 WT00 1116   0.00000
 3419 1117 TIP3 OH2   14.02515   2.60914  15.42891 WT00 1117   0.00000
 3420 1117 TIP3 H1    14.62913   2.46323  14.68374 WT00 1117   0.00000
 3421 1117 TIP3 H2    13.84801   3.57141  15.38503 WT00 1117   0.00000
 3422 1118 TIP3 OH2   11.52746   6.55816  13.60562 WT00 1118   0.00000
 3423 1118 TIP3 H1    12.05841   7.38049  13.55075 WT00 1118   0.00000
 3424 1118 TIP3 H2    10.94011   6.72946  14.36710 WT00 1118   0.00000
 3425 1119 TIP3 OH2   14.35176  -8.07768  14.58204 WT00 1119   0.00000
 3426 1119 TIP3 H1    14.54209  -8.55311  15.41683 WT00 1119   0.00000
 3427 1119 TIP3 H2    14.60952  -7.16479  14.83404 WT00 1119   0.00000
 3428 1120 TIP3 OH2   14.15586  -4.09761  13.87068 WT00 1120   0.00000
 3429 1120 TIP3 H1    13.74376  -4.76446  13.27662 WT00 1120   0.00000
 3430 1120 TIP3 H2    14.70906  -3.58980  13.23564 WT00 1120   0.00000
 3431 1121 TIP3 OH2   14.88921  -0.23585  10.08536 WT00 1121   0.00000
 3432 1121 TIP3 H1    14.83213   0.44779  10.76599 WT00 1121   0.00000
 3433 1121 TIP3 H2    13.93786  -0.46774   9.97290 WT00 1121   0.00000
 3434 1122 TIP3 OH2   13.28469   5.31256  15.41798 WT00 1122   0.00000
 3435 1122 TIP3 H1    12.60547   5.30216  16.12798 WT00 1122   0.00000
 3436 1122 TIP3 H2    12.75111   5.62174  14.65941 WT00 1122   0.00000
 3437 1123 TIP3 OH2   10.74698   4.86153  10.06273 WT00 1123   0.00000
 3438 1123 TIP3 H1    11.10541   4.02370  10.38005 WT00 1123   0.00000
 3439 1123 TIP3 H2    10.07195   4.56047   9.42099 WT00 1123   0.00000
 3440 1124 TIP3 OH2   10.35401  -8.29767  13.91116 WT00 1124   0.00000
 3441 1124 TIP3 H1    10.25507  -7.91972  13.01527 WT00 1124   0.00000
 3442 1124 TIP3 H2     9.74743  -9.05315  13.89984 WT00 1124   0.00000
 3443 1125 TIP3 OH2   14.00098   5.44177  11.63001 WT00 1125   0.00000
 3444 1125 TIP3 H1    14.21607   5.99871  10.85343 WT00 1125   0.00000
 3445 1125 TIP3 H2    13.21719   5.90112  11.96795 WT00 1125   0.00000
 3446 1126 TIP3 OH2   13.34010   2.68462  12.05596 WT00 1126   0.00000
 3447 1126 TIP3 H1    13.49565   3.63047  11.87009 WT00 1126   0.00000
 3448 1126 TIP3 H2    12.40411   2.69254  12.35613 WT00 1126   0.00000
 3449 1127 TIP3 OH2   10.63225   7.78953  11.08236 WT00 1127   0.00000
 3450 1127 TIP3 H1     9.82040   7.46776  10.64778 WT00 1127   0.00000
 3451 1127 TIP3 H2    10.78454   7.10652  11.75904 WT00 1127   0.00000
 3452 1128 TIP3 OH2   12.10680  -3.31324  15.54876 WT00 1128   0.00000
 3453 1128 TIP3 H1    11.80028  -4.14596  15.94028 WT00 1128   0.00000
 3454 1128 TIP3 H2    12.78650  -3.63241  14.92452 WT00 1128   0.00000
 3455 1129 TIP3 OH2   10.67382   2.65734  12.79198 WT00 1129   0.00000
 3456 1129 TIP3 H1    10.33623   1.84085  13.17053 WT00 1129   0.00000
 3457 1129 TIP3 H2     9.93828   2.90124  12.19917 WT00 1129   0.00000
 3458 1130 TIP3 OH2   13.33973   8.56292  13.00049 WT00 1130   0.00000
 3459 1130 TIP3 H1    13.59169   9.30701  13.58256 WT00 1130   0.00000
 3460 1130 TIP3 H2    13.07516   9.03460  12.18704 WT00 1130   0.00000
 3461 1131 TIP3 OH2   11.69429   1.46627  16.19112 WT00 1131   0.00000
 3462 1131 TIP3 H1    11.47994   0.86753  15.46046 WT00 1131   0.00000
 3463 1131 TIP3 H2    12.50500   1.92466  15.87956 WT00 1131   0.00000
 3464 1132 TIP3 OH2   15.33266   1.29769  13.22160 WT00 1132   0.00000
 3465 1132 TIP3 H1    14.83842   0.53962  13.59794 WT00 1132   0.00000
 3466 1132 TIP3 H2    14.61238   1.79281  12.77495 WT00 1132   0.00000
 3467 1133 TIP3 OH2   10.14658  -6.88302  11.54456 WT00 1133   0.00000
 3468 1133 TIP3 H1     9.39213  -6.30267  11.77368 WT00 1133   0.00000
 3469 1133 TIP3 H2    10.12803  -6.84336  10.57769 WT00 1133   0.00000
 3470 1134 TIP3 OH2   15.22894  -6.55782  10.61540 WT00 1134   0.00000
 3471 1134 TIP3 H1    14.48373  -6.42619  11.23700 WT00 1134   0.00000
 3472 1134 TIP3 H2    15.92661  -6.02760  11.01414 WT00 1134   0.00000
 3473 1135 TIP3 OH2   12.31414  -1.10891   9.92965 WT00 1135   0.00000
 3474 1135 TIP3 H1    12.19427  -2.07288   9.95836 WT00 1135   0.00000
 3475 1135 TIP3 H2    11.45782  -0.79061  10.28161 WT00 1135   0.00000
 3476 1136 TIP3 OH2   13.02666  -5.91331  12.14313 WT00 1136   0.00000
 3477 1136 TIP3 H1    12.66101  -5.33795  11.44464 WT00 1136   0.00000
 3478 1136 TIP3 H2    12.23305  -6.41458  12.40051 WT00 1136   0.00000
 3479 1137 TIP3 OH2    9.43424   4.44962  15.21305 WT00 1137   0.00000
 3480 1137 TIP3 H1     9.77808   4.94894  15.97437 WT00 1137   0.00000
 3481 1137 TIP3 H2    10.13307   3.80042  15.07778 WT00 1137   0.00000
 3482 1138 TIP3 OH2   11.78477  -6.62870  15.49686 WT00 1138   0.00000
 3483 1138 TIP3 H1    12.39666  -7.37051  15.48876 WT00 1138   0.00000
 3484 1138 TIP3 H2    11.02022  -7.06380  15.06667 WT00 1138   0.00000
 3485 1139 TIP3 OH2   15.94371   6.00333  13.62588 WT00 1139   0.00000
 3486 1139 TIP3 H1    16.63085   5.45930  13.19980 WT00 1139   0.00000
 3487 1139 TIP3 H2    15.20534   5.85977  13.00264 WT00 1139   0.00000
 3488 1140 TIP3 OH2   10.11488  -0.64778  15.24308 WT00 1140   0.00000
 3489 1140 TIP3 H1    10.59332  -1.39826  15.62747 WT00 1140   0.00000
 3490 1140 TIP3 H2     9.65403  -1.08941  14.49811 WT00 1140   0.00000
 3491 1141 TIP3 OH2   16.52772   8.81721  11.80376 WT00 1141   0.00000
 3492 1141 TIP3 H1    16.23141   9.73785  11.80014 WT00 1141   0.00000
 3493 1141 TIP3 H2    15.83514   8.38790  12.32659 WT00 1141   0.00000
 3494 1142 TIP3 OH2   15.63511  -5.80306  15.40762 WT00 1142   0.00000
 3495 1142 TIP3 H1    15.36300  -5.01028  14.90691 WT00 1142   0.00000
 3496 1142 TIP3 H2    16.59755  -5.80724  15.30912 WT00 1142   0.00000
 3497 1143 TIP3 OH2   12.56272  -9.02707  10.52892 WT00 1143   0.00000
 3498 1143 TIP3 H1    12.15187  -8.25893  10.11236 WT00 1143   0.00000
 3499 1143 TIP3 H2    11.77972  -9.61406  10.64765 WT00 1143   0.00000
 3500 1144 TIP3 OH2   14.25358  14.74739 -10.26428 WT00 1144   0.00000
 3501 1144 TIP3 H1    13.58212  14.51212  -9.59386 WT00 1144   0.00000
 3502 1144 TIP3 H2    13.88608  14.30117 -11.04809 WT00 1144   0.00000
 3503 1145 TIP3 OH2    9.23496  15.81715 -15.46216 WT00 1145   0.00000
 3504 1145 TIP3 H1     9.47760  16.74826 -15.59665 WT00 1145   0.00000
 3505 1145 TIP3 H2     9.46853  15.43086 -16.32146 WT00 1145   0.00000
 3506 1146 TIP3 OH2   11.64365  15.09687 -14.08563 WT00 1146   0.00000
 3507 1146 TIP3 H1    10.77394  15.20484 -14.51918 WT00 1146   0.00000
 3508 1146 TIP3 H2    11.96489  16.01153 -14.07462 WT00 1146   0.00000
 3509 1147 TIP3 OH2   13.64615  13.61980 -15.63738 WT00 1147   0.00000
 3510 1147 TIP3 H1    13.95103  13.77313 -16.54703 WT00 1147   0.00000
 3511 1147 TIP3 H2    13.08897  14.39734 -15.45692 WT00 1147   0.00000
 3512 1148 TIP3 OH2   14.66795  11.21500 -10.69907 WT00 1148   0.00000
 3513 1148 TIP3 H1    13.75025  11.07884 -10.99458 WT00 1148   0.00000
 3514 1148 TIP3 H2    14.57630  11.56508  -9.79137 WT00 1148   0.00000
 3515 1149 TIP3 OH2   12.76099  10.28955 -12.45170 WT00 1149   0.00000
 3516 1149 TIP3 H1    12.44887   9.37086 -12.55490 WT00 1149   0.00000
 3517 1149 TIP3 H2    12.78776  10.55293 -13.39815 WT00 1149   0.00000
 3518 1150 TIP3 OH2   15.11722   9.48234 -16.04299 WT00 1150   0.00000
 3519 1150 TIP3 H1    15.52086   8.67760 -16.41168 WT00 1150   0.00000
 3520 1150 TIP3 H2    15.90550   9.90445 -15.64188 WT00 1150   0.00000
 3521 1151 TIP3 OH2    9.54217  10.69803 -12.58122 WT00 1151   0.00000
 3522 1151 TIP3 H1     9.39535  11.01960 -13.48698 WT00 1151   0.00000
 3523 1151 TIP3 H2     9.13427  11.44261 -12.08634 WT00 1151   0.00000
 3524 1152 TIP3 OH2   15.94983  13.29215 -14.23446 WT00 1152   0.00000
 3525 1152 TIP3 H1    15.24490  13.26225 -14.91101 WT00 1152   0.00000
 3526 1152 TIP3 H2    15.77288  14.15145 -13.83572 WT00 1152   0.00000
 3527 1153 TIP3 OH2   13.11340  10.98931 -14.99583 WT00 1153   0.00000
 3528 1153 TIP3 H1    13.83036  10.51539 -15.46534 WT00 1153   0.00000
 3529 1153 TIP3 H2    13.18548  11.89752 -15.36849 WT00 1153   0.00000
 3530 1154 TIP3 OH2   11.02718  12.44446 -10.05139 WT00 1154   0.00000
 3531 1154 TIP3 H1    10.16750  12.54013 -10.50192 WT00 1154   0.00000
 3532 1154 TIP3 H2    11.63001  12.59851 -10.80896 WT00 1154   0.00000
 3533 1155 TIP3 OH2   10.32029  15.44294 -11.31529 WT00 1155   0.00000
 3534 1155 TIP3 H1    10.82278  14.89551 -11.93469 WT00 1155   0.00000
 3535 1155 TIP3 H2    10.60807  16.32976 -11.60352 WT00 1155   0.00000
 3536 1156 TIP3 OH2   12.56190  13.22888 -12.25468 WT00 1156   0.00000
 3537 1156 TIP3 H1    12.34075  13.76595 -13.04717 WT00 1156   0.00000
 3538 1156 TIP3 H2    12.79418  12.37627 -12.65682 WT00 1156   0.00000
 3539 1157 TIP3 OH2   16.13869  15.97235  -6.30266 WT00 1157   0.00000
 3540 1157 TIP3 H1    16.42169  16.90869  -6.26723 WT00 1157   0.00000
 3541 1157 TIP3 H2    16.40796  15.73981  -7.20915 WT00 1157   0.00000
 3542 1158 TIP3 OH2   12.22391  14.40135  -8.42179 WT00 1158   0.00000
 3543 1158 TIP3 H1    11.57111  13.90808  -8.95816 WT00 1158   0.00000
 3544 1158 TIP3 H2    11.66144  14.82369  -7.74286 WT00 1158   0.00000
 3545 1159 TIP3 OH2   14.24464  10.21242  -1.21968 WT00 1159   0.00000
 3546 1159 TIP3 H1    14.86954  10.17556  -0.48062 WT00 1159   0.00000
 3547 1159 TIP3 H2    13.81415   9.33532  -1.16769 WT00 1159   0.00000
 3548 1160 TIP3 OH2   14.24819  14.74585   8.40491 WT00 1160   0.00000
 3549 1160 TIP3 H1    13.57287  14.51179   9.07199 WT00 1160   0.00000
 3550 1160 TIP3 H2    13.89159  14.29283   7.62045 WT00 1160   0.00000
 3551 1161 TIP3 OH2   10.50907  14.77683  -6.06960 WT00 1161   0.00000
 3552 1161 TIP3 H1    10.60763  14.29640  -5.23463 WT00 1161   0.00000
 3553 1161 TIP3 H2     9.54895  14.85293  -6.15090 WT00 1161   0.00000
 3554 1162 TIP3 OH2    9.29327  15.92636   3.43297 WT00 1162   0.00000
 3555 1162 TIP3 H1     9.52753  16.84751   3.23972 WT00 1162   0.00000
 3556 1162 TIP3 H2     9.21543  15.54407   2.52831 WT00 1162   0.00000
 3557 1163 TIP3 OH2   14.45009  10.53269  -3.95978 WT00 1163   0.00000
 3558 1163 TIP3 H1    14.47247  10.30086  -3.00926 WT00 1163   0.00000
 3559 1163 TIP3 H2    14.61164  11.49562  -3.91434 WT00 1163   0.00000
 3560 1164 TIP3 OH2   14.03528  14.70744  -4.86422 WT00 1164   0.00000
 3561 1164 TIP3 H1    13.62891  14.07252  -5.48660 WT00 1164   0.00000
 3562 1164 TIP3 H2    14.46008  15.33613  -5.49073 WT00 1164   0.00000
 3563 1165 TIP3 OH2    9.50861  12.92879  -1.72144 WT00 1165   0.00000
 3564 1165 TIP3 H1     9.08558  13.23824  -2.55154 WT00 1165   0.00000
 3565 1165 TIP3 H2    10.27220  12.42538  -2.09057 WT00 1165   0.00000
 3566 1166 TIP3 OH2   13.95916  13.03371  -0.49194 WT00 1166   0.00000
 3567 1166 TIP3 H1    14.55309  13.09115   0.27786 WT00 1166   0.00000
 3568 1166 TIP3 H2    13.94731  12.07862  -0.67751 WT00 1166   0.00000
 3569 1167 TIP3 OH2   11.74559  15.05656   4.46626 WT00 1167   0.00000
 3570 1167 TIP3 H1    10.82685  15.22509   4.16295 WT00 1167   0.00000
 3571 1167 TIP3 H2    12.05165  15.96547   4.62432 WT00 1167   0.00000
 3572 1168 TIP3 OH2    9.32000   9.27272   0.47272 WT00 1168   0.00000
 3573 1168 TIP3 H1     8.92470  10.09724   0.77885 WT00 1168   0.00000
 3574 1168 TIP3 H2     9.94096   9.08633   1.20770 WT00 1168   0.00000
 3575 1169 TIP3 OH2   13.37530  13.78118   2.55675 WT00 1169   0.00000
 3576 1169 TIP3 H1    12.94545  14.05469   1.73141 WT00 1169   0.00000
 3577 1169 TIP3 H2    12.85992  14.30239   3.20429 WT00 1169   0.00000
 3578 1170 TIP3 OH2   11.30905  13.51545   0.28573 WT00 1170   0.00000
 3579 1170 TIP3 H1    10.75654  13.26108  -0.47992 WT00 1170   0.00000
 3580 1170 TIP3 H2    12.19982  13.36601  -0.08301 WT00 1170   0.00000
 3581 1171 TIP3 OH2   14.64978  11.18572   7.96525 WT00 1171   0.00000
 3582 1171 TIP3 H1    13.72693  11.13045   7.67654 WT00 1171   0.00000
 3583 1171 TIP3 H2    14.59160  11.53537   8.87598 WT00 1171   0.00000
 3584 1172 TIP3 OH2   10.42257  10.42869  -4.71805 WT00 1172   0.00000
 3585 1172 TIP3 H1    10.31705  10.80665  -5.61429 WT00 1172   0.00000
 3586 1172 TIP3 H2     9.82302   9.66587  -4.74640 WT00 1172   0.00000
 3587 1173 TIP3 OH2   12.81844  10.43542   5.91757 WT00 1173   0.00000
 3588 1173 TIP3 H1    12.51373   9.50885   5.93330 WT00 1173   0.00000
 3589 1173 TIP3 H2    12.75975  10.60903   4.95457 WT00 1173   0.00000
 3590 1174 TIP3 OH2   15.12302   9.54237   2.58270 WT00 1174   0.00000
 3591 1174 TIP3 H1    15.49829   8.84553   2.02606 WT00 1174   0.00000
 3592 1174 TIP3 H2    15.83418  10.20782   2.55938 WT00 1174   0.00000
 3593 1175 TIP3 OH2   12.48657  14.72817  -2.52751 WT00 1175   0.00000
 3594 1175 TIP3 H1    13.07342  14.20825  -1.95630 WT00 1175   0.00000
 3595 1175 TIP3 H2    13.03920  14.83987  -3.32508 WT00 1175   0.00000
 3596 1176 TIP3 OH2    9.51339  10.72679   6.03068 WT00 1176   0.00000
 3597 1176 TIP3 H1     9.22082  11.10342   5.17972 WT00 1176   0.00000
 3598 1176 TIP3 H2     9.16213  11.43229   6.61646 WT00 1176   0.00000
 3599 1177 TIP3 OH2   10.14913  11.75854  -7.12507 WT00 1177   0.00000
 3600 1177 TIP3 H1     9.35646  12.30244  -6.95068 WT00 1177   0.00000
 3601 1177 TIP3 H2    10.19114  11.79233  -8.09361 WT00 1177   0.00000
 3602 1178 TIP3 OH2   15.25147  12.08431  -8.01033 WT00 1178   0.00000
 3603 1178 TIP3 H1    14.51098  12.21081  -7.38431 WT00 1178   0.00000
 3604 1178 TIP3 H2    15.90517  12.71301  -7.68285 WT00 1178   0.00000
 3605 1179 TIP3 OH2   10.58752  16.40239  -1.38846 WT00 1179   0.00000
 3606 1179 TIP3 H1    10.17863  15.62864  -0.98775 WT00 1179   0.00000
 3607 1179 TIP3 H2    11.32867  15.98015  -1.87379 WT00 1179   0.00000
 3608 1180 TIP3 OH2   15.63320  13.44678   4.20137 WT00 1180   0.00000
 3609 1180 TIP3 H1    15.00434  13.46118   3.45799 WT00 1180   0.00000
 3610 1180 TIP3 H2    15.53057  14.32354   4.57734 WT00 1180   0.00000
 3611 1181 TIP3 OH2   12.92996  11.00434   3.24172 WT00 1181   0.00000
 3612 1181 TIP3 H1    13.72668  10.50513   2.94797 WT00 1181   0.00000
 3613 1181 TIP3 H2    13.13191  11.90283   2.91331 WT00 1181   0.00000
 3614 1182 TIP3 OH2   13.01031  12.67135  -6.47682 WT00 1182   0.00000
 3615 1182 TIP3 H1    12.74362  13.26058  -7.21386 WT00 1182   0.00000
 3616 1182 TIP3 H2    12.18236  12.18611  -6.32773 WT00 1182   0.00000
 3617 1183 TIP3 OH2   11.02612  12.45373   8.60718 WT00 1183   0.00000
 3618 1183 TIP3 H1    10.16088  12.55614   8.16927 WT00 1183   0.00000
 3619 1183 TIP3 H2    11.62186  12.62171   7.84743 WT00 1183   0.00000
 3620 1184 TIP3 OH2   11.64808  11.49977  -2.57174 WT00 1184   0.00000
 3621 1184 TIP3 H1    12.54509  11.15968  -2.64268 WT00 1184   0.00000
 3622 1184 TIP3 H2    11.22399  11.09267  -3.36229 WT00 1184   0.00000
 3623 1185 TIP3 OH2   10.31241  15.44066   7.33910 WT00 1185   0.00000
 3624 1185 TIP3 H1    10.85622  14.87924   6.77228 WT00 1185   0.00000
 3625 1185 TIP3 H2    10.58923  16.32478   7.03468 WT00 1185   0.00000
 3626 1186 TIP3 OH2   15.70283  13.05375  -3.59095 WT00 1186   0.00000
 3627 1186 TIP3 H1    15.09858  13.77505  -3.87847 WT00 1186   0.00000
 3628 1186 TIP3 H2    16.45934  13.22989  -4.16306 WT00 1186   0.00000
 3629 1187 TIP3 OH2   12.57040   9.63054  -8.11637 WT00 1187   0.00000
 3630 1187 TIP3 H1    12.18992  10.38290  -8.58745 WT00 1187   0.00000
 3631 1187 TIP3 H2    11.77613   9.05930  -8.00335 WT00 1187   0.00000
 3632 1188 TIP3 OH2   12.54922  13.21948   6.41442 WT00 1188   0.00000
 3633 1188 TIP3 H1    12.36015  13.72399   5.59608 WT00 1188   0.00000
 3634 1188 TIP3 H2    12.77012  12.33632   6.05755 WT00 1188   0.00000
 3635 1189 TIP3 OH2   16.18034  15.96908  12.39024 WT00 1189   0.00000
 3636 1189 TIP3 H1    16.41319  16.92034  12.37098 WT00 1189   0.00000
 3637 1189 TIP3 H2    16.35612  15.73022  11.46164 WT00 1189   0.00000
 3638 1190 TIP3 OH2   12.20375  14.41660  10.24147 WT00 1190   0.00000
 3639 1190 TIP3 H1    11.55780  13.89715   9.72215 WT00 1190   0.00000
 3640 1190 TIP3 H2    11.64242  14.80064  10.94473 WT00 1190   0.00000
 3641 1191 TIP3 OH2   10.51180  14.72361  12.61655 WT00 1191   0.00000
 3642 1191 TIP3 H1    10.67364  14.37659  13.51030 WT00 1191   0.00000
 3643 1191 TIP3 H2     9.54691  14.78902  12.61880 WT00 1191   0.00000
 3644 1192 TIP3 OH2   14.30560  10.60182  14.59999 WT00 1192   0.00000
 3645 1192 TIP3 H1    14.53530  10.13694  15.43204 WT00 1192   0.00000
 3646 1192 TIP3 H2    14.58114  11.51645  14.82024 WT00 1192   0.00000
 3647 1193 TIP3 OH2   14.17517  14.57203  13.88461 WT00 1193   0.00000
 3648 1193 TIP3 H1    13.75129  13.95091  13.25746 WT00 1193   0.00000
 3649 1193 TIP3 H2    14.62118  15.19290  13.26811 WT00 1193   0.00000
 3650 1194 TIP3 OH2   10.32574  10.39009  13.91776 WT00 1194   0.00000
 3651 1194 TIP3 H1    10.24877  10.73135  13.00494 WT00 1194   0.00000
 3652 1194 TIP3 H2     9.75414   9.60688  13.90470 WT00 1194   0.00000
 3653 1195 TIP3 OH2   11.80940  15.00028  15.49409 WT00 1195   0.00000
 3654 1195 TIP3 H1    11.81156  14.06955  15.77413 WT00 1195   0.00000
 3655 1195 TIP3 H2    12.63535  15.07018  14.98327 WT00 1195   0.00000
 3656 1196 TIP3 OH2   10.13952  11.72709  11.50662 WT00 1196   0.00000
 3657 1196 TIP3 H1     9.38251  12.30079  11.73528 WT00 1196   0.00000
 3658 1196 TIP3 H2    10.15026  11.80008  10.54091 WT00 1196   0.00000
 3659 1197 TIP3 OH2   15.25604  12.04086  10.65839 WT00 1197   0.00000
 3660 1197 TIP3 H1    14.50594  12.19992  11.26807 WT00 1197   0.00000
 3661 1197 TIP3 H2    15.90494  12.68526  10.96506 WT00 1197   0.00000
 3662 1198 TIP3 OH2   13.04294  12.68724  12.18239 WT00 1198   0.00000
 3663 1198 TIP3 H1    12.72464  13.27509  11.46677 WT00 1198   0.00000
 3664 1198 TIP3 H2    12.22187  12.22362  12.41623 WT00 1198   0.00000
 3665 1199 TIP3 OH2   11.77565  11.99754  15.54805 WT00 1199   0.00000
 3666 1199 TIP3 H1    12.43183  11.30221  15.42248 WT00 1199   0.00000
 3667 1199 TIP3 H2    11.01291  11.55611  15.11843 WT00 1199   0.00000
 3668 1200 TIP3 OH2   15.64882  12.90998  15.42037 WT00 1200   0.00000
 3669 1200 TIP3 H1    15.35490  13.66991  14.87440 WT00 1200   0.00000
 3670 1200 TIP3 H2    16.57118  12.80142  15.15131 WT00 1200   0.00000
 3671 1201 TIP3 OH2   12.56911   9.62926  10.52710 WT00 1201   0.00000
 3672 1201 TIP3 H1    12.16619  10.41283  10.13180 WT00 1201   0.00000
 3673 1201 TIP3 H2    11.77720   9.05332  10.64193 WT00 1201   0.00000
